|===============================================================================
|
|  DFTB+ release 24.1
|
|  Copyright (C) 2006 - 2024  DFTB+ developers group
|
|===============================================================================
|
|  When publishing results obtained with DFTB+, please cite the following
|  reference:
|
|  * DFTB+, a software package for efficient approximate density functional
|    theory based atomistic simulations, J. Chem. Phys. 152, 124101 (2020).
|    [doi: 10.1063/1.5143190]
|
|  You should also cite additional publications crediting the parametrization
|  data you use. Please consult the documentation of the SK-files for the
|  references.
|
|===============================================================================

Reading input file 'dftb_in.hsd'
Parser version: 14

--------------------------------------------------------------------------------
Reading SK-files:
./SKFiles/Ge-Ge.skf
./SKFiles/Ge-Si.skf
./SKFiles/Ge-O.skf
./SKFiles/Si-Si.skf
./SKFiles/Si-O.skf
./SKFiles/O-O.skf
Done.


Processed input in HSD format written to 'dftb_pin.hsd'

Starting initialization...
--------------------------------------------------------------------------------
WARNING!
-> Dipole printed for extended system : value printed is not well defined
MPI processes:               1
OpenMP threads:              8
BLACS orbital grid size:     1 x 1
BLACS atom grid size:        1 x 1
Chosen random seed:          144256247
Current stacksize:           unlimited
Mode:                        Static calculation
Self consistent charges:     Yes
SCC-tolerance:                 0.100000E-07
Max. scc iterations:                    500
Shell resolved Hubbard:      No
Spin polarisation:           No
Nr. of up electrons:           192.000000
Nr. of down electrons:         192.000000
Periodic boundaries:         Yes
Electronic solver:           Relatively robust
Mixer:                       Broyden mixer
Mixing parameter:                  0.200000
Maximal SCC-cycles:                     500
Nr. of chrg. vec. in memory:            500
Electronic temperature:              0.100000E-07 H      0.272114E-06 eV
Initial charges:             Set automatically (system chrg:   0.000E+00)
Included shells:            Ge:  s, p, d
                            Si:  s, p, d
                             O:  s, p
K-points and weights:           1:  0.500000  0.500000  0.500000     1.000000

K-points in absolute space:     1:  0.025319  0.017606  0.037774

Extra options:
                             Mulliken analysis
Force type                   original

--------------------------------------------------------------------------------

***  Geometry step: 0

 iSCC Total electronic   Diff electronic      SCC error    
    1    0.00000000E+00    0.00000000E+00    0.14597444E+01
    2   -0.19480278E+03   -0.19480278E+03    0.99413409E+00
    3   -0.19516919E+03   -0.36641445E+00    0.62001092E-01
    4   -0.19548500E+03   -0.31581231E+00    0.28095872E-01
    5   -0.19548702E+03   -0.20219914E-02    0.79325872E-02
    6   -0.19548717E+03   -0.14597656E-03    0.17105710E-02
    7   -0.19548717E+03   -0.39321772E-05    0.42220975E-03
    8   -0.19548718E+03   -0.11113783E-05    0.64171786E-04
    9   -0.19548718E+03   -0.62892838E-07    0.30707255E-04
   10   -0.19548718E+03   -0.48856919E-10    0.14508674E-05
   11   -0.19548718E+03   -0.21481128E-09    0.38234500E-06
   12   -0.19548718E+03   -0.29558578E-11    0.20474226E-06
   13   -0.19548718E+03    0.28421709E-13    0.18461406E-07
   14   -0.19548718E+03    0.00000000E+00    0.40233394E-08

Total Energy:                     -191.8772600830 H        -5221.2459 eV
Extrapolated to 0K:               -191.8772600830 H        -5221.2459 eV
Total Mermin free energy:         -191.8772600830 H        -5221.2459 eV
Force related energy:             -191.8772600830 H        -5221.2459 eV

Volume:                              0.913789E+04 au^3   0.135410E+04 A^3
Pressure:                            0.716000E-03 au     0.210654E+11 Pa
>> Charges saved for restart in charges.bin

total energy  -1.9187726E+02 H       energy change -1.9187726E+02 H
gradient norm  1.0111238E+00 H/a0    max. gradient  4.8787501E-01 H/a0
step length    0.0000000E+00 a0      max. step      0.0000000E+00 a0

--------------------------------------------------------------------------------

***  Geometry step: 1

 iSCC Total electronic   Diff electronic      SCC error    
    1   -0.19548718E+03    0.00000000E+00    0.11121562E+00
    2   -0.19506189E+03    0.42528581E+00    0.58911984E-01
    3   -0.19507190E+03   -0.10009210E-01    0.14419683E-01
    4   -0.19507409E+03   -0.21943665E-02    0.15902346E-02
    5   -0.19507412E+03   -0.26885126E-04    0.49088757E-03
    6   -0.19507412E+03   -0.93333409E-06    0.13725355E-03
    7   -0.19507412E+03   -0.73811009E-07    0.20273964E-04
    8   -0.19507412E+03   -0.64271433E-08    0.31364344E-05
    9   -0.19507412E+03   -0.29788794E-09    0.10818383E-05
   10   -0.19507412E+03   -0.38937742E-11    0.27496638E-06
   11   -0.19507412E+03   -0.17053026E-12    0.41900567E-07
   12   -0.19507412E+03   -0.19895197E-12    0.80014346E-08

Total Energy:                     -192.0256223859 H        -5225.2830 eV
Extrapolated to 0K:               -192.0256223859 H        -5225.2830 eV
Total Mermin free energy:         -192.0256223859 H        -5225.2830 eV
Force related energy:             -192.0256223859 H        -5225.2830 eV

Volume:                              0.952305E+04 au^3   0.141117E+04 A^3
Pressure:                            0.437714E-03 au     0.128780E+11 Pa
>> Charges saved for restart in charges.bin

total energy  -1.9202562E+02 H       energy change -1.4836230E-01 H
gradient norm  6.6193209E-01 H/a0    max. gradient  2.4245462E-01 H/a0
step length    6.2108555E-01 a0      max. step      2.9967856E-01 a0

--------------------------------------------------------------------------------

***  Geometry step: 2

 iSCC Total electronic   Diff electronic      SCC error    
    1   -0.19507412E+03    0.00000000E+00    0.61569735E-01
    2   -0.19501765E+03    0.56475785E-01    0.24628992E-01
    3   -0.19502082E+03   -0.31786933E-02    0.73479376E-02
    4   -0.19502155E+03   -0.72622410E-03    0.10477379E-02
    5   -0.19502156E+03   -0.70940991E-05    0.18576666E-03
    6   -0.19502156E+03   -0.27015358E-06    0.11918726E-03
    7   -0.19502156E+03   -0.19472907E-07    0.19605975E-04
    8   -0.19502156E+03   -0.21294113E-08    0.11422583E-05
    9   -0.19502156E+03   -0.86743057E-10    0.32555698E-06
   10   -0.19502156E+03   -0.11652901E-11    0.11832036E-06
   11   -0.19502156E+03   -0.85265128E-13    0.15673156E-07
   12   -0.19502156E+03    0.85265128E-13    0.45136397E-08

Total Energy:                     -192.1834006992 H        -5229.5764 eV
Extrapolated to 0K:               -192.1834006992 H        -5229.5764 eV
Total Mermin free energy:         -192.1834006992 H        -5229.5764 eV
Force related energy:             -192.1834006992 H        -5229.5764 eV

Volume:                              0.950376E+04 au^3   0.140831E+04 A^3
Pressure:                            0.367135E-03 au     0.108015E+11 Pa
>> Charges saved for restart in charges.bin

total energy  -1.9218340E+02 H       energy change -1.5777831E-01 H
gradient norm  3.2683328E-01 H/a0    max. gradient  7.6813481E-02 H/a0
step length    3.7516834E-01 a0      max. step      8.0703221E-02 a0

--------------------------------------------------------------------------------

***  Geometry step: 3

 iSCC Total electronic   Diff electronic      SCC error    
    1   -0.19502156E+03    0.00000000E+00    0.55966451E-01
    2   -0.19489830E+03    0.12325894E+00    0.28623147E-01
    3   -0.19490107E+03   -0.27715929E-02    0.88774142E-02
    4   -0.19490173E+03   -0.65598958E-03    0.14038938E-02
    5   -0.19490173E+03   -0.82989146E-05    0.25696826E-03
    6   -0.19490174E+03   -0.52730095E-06    0.15490487E-03
    7   -0.19490174E+03   -0.14371636E-07    0.16880735E-04
    8   -0.19490174E+03   -0.31376999E-08    0.19636417E-05
    9   -0.19490174E+03   -0.11010570E-09    0.67583317E-06
   10   -0.19490174E+03   -0.21032065E-11    0.18526090E-06
   11   -0.19490174E+03    0.00000000E+00    0.21265433E-07
   12   -0.19490174E+03   -0.28421709E-13    0.63347891E-08

Total Energy:                     -192.2623238139 H        -5231.7240 eV
Extrapolated to 0K:               -192.2623238139 H        -5231.7240 eV
Total Mermin free energy:         -192.2623238139 H        -5231.7240 eV
Force related energy:             -192.2623238139 H        -5231.7240 eV

Volume:                              0.952204E+04 au^3   0.141102E+04 A^3
Pressure:                            0.297113E-03 au     0.874137E+10 Pa
>> Charges saved for restart in charges.bin

total energy  -1.9226232E+02 H       energy change -7.8923115E-02 H
gradient norm  2.4737962E-01 H/a0    max. gradient  1.6326292E-01 H/a0
step length    4.5421523E-01 a0      max. step      1.1233004E-01 a0

--------------------------------------------------------------------------------

***  Geometry step: 4

 iSCC Total electronic   Diff electronic      SCC error    
    1   -0.19490174E+03    0.00000000E+00    0.43761426E-01
    2   -0.19470538E+03    0.19635160E+00    0.24248017E-01
    3   -0.19470619E+03   -0.80913758E-03    0.44998662E-02
    4   -0.19470638E+03   -0.19178705E-03    0.66075320E-03
    5   -0.19470639E+03   -0.35826493E-05    0.17610104E-03
    6   -0.19470639E+03   -0.32564549E-06    0.97508692E-04
    7   -0.19470639E+03   -0.54781424E-08    0.12337491E-04
    8   -0.19470639E+03   -0.75061735E-09    0.12459262E-05
    9   -0.19470639E+03   -0.47805315E-10    0.30985941E-06
   10   -0.19470639E+03   -0.11652901E-11    0.86707235E-07
   11   -0.19470639E+03   -0.56843419E-13    0.18316561E-07
   12   -0.19470639E+03   -0.85265128E-13    0.39410057E-08

Total Energy:                     -192.2993569111 H        -5232.7317 eV
Extrapolated to 0K:               -192.2993569111 H        -5232.7317 eV
Total Mermin free energy:         -192.2993569111 H        -5232.7317 eV
Force related energy:             -192.2993569111 H        -5232.7317 eV

Volume:                              0.962892E+04 au^3   0.142686E+04 A^3
Pressure:                            0.203274E-03 au     0.598052E+10 Pa
>> Charges saved for restart in charges.bin

total energy  -1.9229936E+02 H       energy change -3.7033097E-02 H
gradient norm  1.8665539E-01 H/a0    max. gradient  7.4080504E-02 H/a0
step length    3.5105033E-01 a0      max. step      1.1640408E-01 a0

--------------------------------------------------------------------------------

***  Geometry step: 5

 iSCC Total electronic   Diff electronic      SCC error    
    1   -0.19470639E+03    0.00000000E+00    0.30606844E-01
    2   -0.19447896E+03    0.22742765E+00    0.16622562E-01
    3   -0.19447976E+03   -0.79417188E-03    0.35776081E-02
    4   -0.19447992E+03   -0.16393537E-03    0.53357783E-03
    5   -0.19447992E+03   -0.39798967E-05    0.19161631E-03
    6   -0.19447992E+03   -0.30561515E-06    0.92534330E-04
    7   -0.19447992E+03   -0.47660365E-08    0.91969576E-05
    8   -0.19447992E+03   -0.55405280E-09    0.18463019E-05
    9   -0.19447992E+03   -0.57497118E-10    0.39377519E-06
   10   -0.19447992E+03   -0.96633812E-12    0.49440759E-07
   11   -0.19447992E+03   -0.56843419E-13    0.15343321E-07
   12   -0.19447992E+03    0.28421709E-13    0.40753232E-08

Total Energy:                     -192.3239285624 H        -5233.4004 eV
Extrapolated to 0K:               -192.3239285624 H        -5233.4004 eV
Total Mermin free energy:         -192.3239285624 H        -5233.4004 eV
Force related energy:             -192.3239285624 H        -5233.4004 eV

Volume:                              0.975413E+04 au^3   0.144541E+04 A^3
Pressure:                            0.100910E-03 au     0.296886E+10 Pa
>> Charges saved for restart in charges.bin

total energy  -1.9232393E+02 H       energy change -2.4571651E-02 H
gradient norm  1.6153304E-01 H/a0    max. gradient  9.3047864E-02 H/a0
step length    4.2380662E-01 a0      max. step      1.1815645E-01 a0

--------------------------------------------------------------------------------

***  Geometry step: 6

 iSCC Total electronic   Diff electronic      SCC error    
    1   -0.19447992E+03    0.00000000E+00    0.27650228E-01
    2   -0.19439642E+03    0.83503149E-01    0.12571142E-01
    3   -0.19439678E+03   -0.35800147E-03    0.16425691E-02
    4   -0.19439686E+03   -0.82328398E-04    0.24799923E-03
    5   -0.19439686E+03   -0.75853717E-06    0.62122508E-04
    6   -0.19439686E+03   -0.63305180E-07    0.23561734E-04
    7   -0.19439686E+03   -0.12738894E-08    0.29703676E-05
    8   -0.19439686E+03   -0.20315838E-09    0.61945682E-06
    9   -0.19439686E+03   -0.54569682E-11    0.13650377E-06
   10   -0.19439686E+03   -0.25579538E-12    0.32048298E-07
   11   -0.19439686E+03    0.56843419E-13    0.54987184E-08

Total Energy:                     -192.3364437518 H        -5233.7409 eV
Extrapolated to 0K:               -192.3364437518 H        -5233.7409 eV
Total Mermin free energy:         -192.3364437518 H        -5233.7409 eV
Force related energy:             -192.3364437518 H        -5233.7409 eV

Volume:                              0.979346E+04 au^3   0.145124E+04 A^3
Pressure:                            0.610999E-04 au     0.179762E+10 Pa
>> Charges saved for restart in charges.bin

total energy  -1.9233644E+02 H       energy change -1.2515189E-02 H
gradient norm  1.0143932E-01 H/a0    max. gradient  3.3777104E-02 H/a0
step length    2.2866901E-01 a0      max. step      4.7340656E-02 a0

--------------------------------------------------------------------------------

***  Geometry step: 7

 iSCC Total electronic   Diff electronic      SCC error    
    1   -0.19439686E+03    0.00000000E+00    0.17799326E-01
    2   -0.19437872E+03    0.18139174E-01    0.10517689E-01
    3   -0.19437897E+03   -0.24490266E-03    0.27136884E-02
    4   -0.19437902E+03   -0.57542839E-04    0.30737511E-03
    5   -0.19437903E+03   -0.66715816E-06    0.68522849E-04
    6   -0.19437903E+03   -0.38698005E-07    0.26662165E-04
    7   -0.19437903E+03   -0.10468000E-08    0.61577497E-05
    8   -0.19437903E+03   -0.10797407E-09    0.77774076E-06
    9   -0.19437903E+03   -0.93791641E-11    0.16567984E-06
   10   -0.19437903E+03   -0.28421709E-12    0.23355047E-07
   11   -0.19437903E+03   -0.11368684E-12    0.46179358E-08

Total Energy:                     -192.3463301719 H        -5234.0099 eV
Extrapolated to 0K:               -192.3463301719 H        -5234.0099 eV
Total Mermin free energy:         -192.3463301719 H        -5234.0099 eV
Force related energy:             -192.3463301719 H        -5234.0099 eV

Volume:                              0.979212E+04 au^3   0.145104E+04 A^3
Pressure:                            0.510370E-04 au     0.150156E+10 Pa
>> Charges saved for restart in charges.bin

total energy  -1.9234633E+02 H       energy change -9.8864201E-03 H
gradient norm  7.4457884E-02 H/a0    max. gradient  2.3499084E-02 H/a0
step length    1.8861565E-01 a0      max. step      4.0231675E-02 a0

--------------------------------------------------------------------------------

***  Geometry step: 8

 iSCC Total electronic   Diff electronic      SCC error    
    1   -0.19437903E+03    0.00000000E+00    0.29504669E-01
    2   -0.19436691E+03    0.12113550E-01    0.17357574E-01
    3   -0.19436712E+03   -0.20758209E-03    0.32854733E-02
    4   -0.19436717E+03   -0.52385358E-04    0.30654101E-03
    5   -0.19436717E+03   -0.11822672E-05    0.95664662E-04
    6   -0.19436717E+03   -0.55915990E-07    0.24668545E-04
    7   -0.19436717E+03   -0.16121078E-08    0.52244431E-05
    8   -0.19436717E+03   -0.83588247E-10    0.68661276E-06
    9   -0.19436717E+03   -0.12335022E-10    0.16148461E-06
   10   -0.19436717E+03   -0.34106051E-12    0.23085857E-07
   11   -0.19436717E+03    0.85265128E-13    0.44057296E-08

Total Energy:                     -192.3541472196 H        -5234.2227 eV
Extrapolated to 0K:               -192.3541472196 H        -5234.2227 eV
Total Mermin free energy:         -192.3541472196 H        -5234.2227 eV
Force related energy:             -192.3541472196 H        -5234.2227 eV

Volume:                              0.979343E+04 au^3   0.145124E+04 A^3
Pressure:                            0.422157E-04 au     0.124203E+10 Pa
>> Charges saved for restart in charges.bin

total energy  -1.9235415E+02 H       energy change -7.8170478E-03 H
gradient norm  5.6683071E-02 H/a0    max. gradient  2.7668351E-02 H/a0
step length    2.3530656E-01 a0      max. step      5.0041967E-02 a0

--------------------------------------------------------------------------------

***  Geometry step: 9

 iSCC Total electronic   Diff electronic      SCC error    
    1   -0.19436717E+03    0.00000000E+00    0.15164775E-01
    2   -0.19436525E+03    0.19257465E-02    0.87490305E-02
    3   -0.19436531E+03   -0.60071581E-04    0.15588068E-02
    4   -0.19436532E+03   -0.15504135E-04    0.14275552E-03
    5   -0.19436532E+03   -0.46336487E-06    0.54126857E-04
    6   -0.19436532E+03   -0.27219130E-07    0.14065748E-04
    7   -0.19436532E+03   -0.80325435E-09    0.42465355E-05
    8   -0.19436532E+03   -0.33338665E-10    0.40355822E-06
    9   -0.19436532E+03   -0.30979663E-11    0.10776123E-06
   10   -0.19436532E+03   -0.14210855E-12    0.20051527E-07
   11   -0.19436532E+03    0.28421709E-13    0.19800197E-08

Total Energy:                     -192.3575120637 H        -5234.3142 eV
Extrapolated to 0K:               -192.3575120637 H        -5234.3142 eV
Total Mermin free energy:         -192.3575120637 H        -5234.3142 eV
Force related energy:             -192.3575120637 H        -5234.3142 eV

Volume:                              0.979116E+04 au^3   0.145090E+04 A^3
Pressure:                            0.404579E-04 au     0.119031E+10 Pa
>> Charges saved for restart in charges.bin

total energy  -1.9235751E+02 H       energy change -3.3648441E-03 H
gradient norm  4.1380486E-02 H/a0    max. gradient  9.5225822E-03 H/a0
step length    1.5424834E-01 a0      max. step      3.0925440E-02 a0

--------------------------------------------------------------------------------

***  Geometry step: 10

 iSCC Total electronic   Diff electronic      SCC error    
    1   -0.19436532E+03    0.00000000E+00    0.12090242E-01
    2   -0.19435777E+03    0.75559804E-02    0.49249485E-02
    3   -0.19435783E+03   -0.61886705E-04    0.10220520E-02
    4   -0.19435784E+03   -0.12702386E-04    0.17139318E-03
    5   -0.19435784E+03   -0.38147260E-06    0.47216098E-04
    6   -0.19435784E+03   -0.24988566E-07    0.16005079E-04
    7   -0.19435784E+03   -0.74032869E-09    0.44312623E-05
    8   -0.19435784E+03   -0.42888360E-10    0.28839083E-06
    9   -0.19435784E+03   -0.24158453E-11    0.77317039E-07
   10   -0.19435784E+03   -0.28421709E-13    0.16696705E-07
   11   -0.19435784E+03   -0.28421709E-13    0.25494344E-08

Total Energy:                     -192.3601751506 H        -5234.3867 eV
Extrapolated to 0K:               -192.3601751506 H        -5234.3867 eV
Total Mermin free energy:         -192.3601751506 H        -5234.3867 eV
Force related energy:             -192.3601751506 H        -5234.3867 eV

Volume:                              0.979659E+04 au^3   0.145171E+04 A^3
Pressure:                            0.361865E-04 au     0.106464E+10 Pa
>> Charges saved for restart in charges.bin

total energy  -1.9236018E+02 H       energy change -2.6630869E-03 H
gradient norm  3.5281313E-02 H/a0    max. gradient  9.1549590E-03 H/a0
step length    1.6169777E-01 a0      max. step      2.9539867E-02 a0

--------------------------------------------------------------------------------

***  Geometry step: 11

 iSCC Total electronic   Diff electronic      SCC error    
    1   -0.19435784E+03    0.00000000E+00    0.71620327E-02
    2   -0.19435032E+03    0.75243668E-02    0.33451529E-02
    3   -0.19435036E+03   -0.38502988E-04    0.94530099E-03
    4   -0.19435037E+03   -0.87180064E-05    0.11699652E-03
    5   -0.19435037E+03   -0.25104345E-06    0.22600094E-04
    6   -0.19435037E+03   -0.18260124E-07    0.79928389E-05
    7   -0.19435037E+03   -0.34501113E-09    0.19542725E-05
    8   -0.19435037E+03   -0.24357405E-10    0.27935574E-06
    9   -0.19435037E+03   -0.13358203E-11    0.64992289E-07
   10   -0.19435037E+03   -0.56843419E-13    0.15341247E-07
   11   -0.19435037E+03    0.56843419E-13    0.16269710E-08

Total Energy:                     -192.3621722609 H        -5234.4410 eV
Extrapolated to 0K:               -192.3621722609 H        -5234.4410 eV
Total Mermin free energy:         -192.3621722609 H        -5234.4410 eV
Force related energy:             -192.3621722609 H        -5234.4410 eV

Volume:                              0.980678E+04 au^3   0.145321E+04 A^3
Pressure:                            0.311638E-04 au     0.916870E+09 Pa
>> Charges saved for restart in charges.bin

total energy  -1.9236217E+02 H       energy change -1.9971103E-03 H
gradient norm  3.7233636E-02 H/a0    max. gradient  1.6027947E-02 H/a0
step length    1.3340289E-01 a0      max. step      2.6324867E-02 a0

--------------------------------------------------------------------------------

***  Geometry step: 12

 iSCC Total electronic   Diff electronic      SCC error    
    1   -0.19435037E+03    0.00000000E+00    0.11530612E-01
    2   -0.19434272E+03    0.76479674E-02    0.67872174E-02
    3   -0.19434277E+03   -0.55617338E-04    0.11871700E-02
    4   -0.19434279E+03   -0.13262923E-04    0.19746493E-03
    5   -0.19434279E+03   -0.51845637E-06    0.65938977E-04
    6   -0.19434279E+03   -0.24397821E-07    0.22058711E-04
    7   -0.19434279E+03   -0.28722980E-09    0.19521345E-05
    8   -0.19434279E+03   -0.30695446E-10    0.33794755E-06
    9   -0.19434279E+03   -0.28990144E-11    0.90067119E-07
   10   -0.19434279E+03   -0.22737368E-12    0.82872038E-08

Total Energy:                     -192.3643682592 H        -5234.5008 eV
Extrapolated to 0K:               -192.3643682592 H        -5234.5008 eV
Total Mermin free energy:         -192.3643682592 H        -5234.5008 eV
Force related energy:             -192.3643682592 H        -5234.5008 eV

Volume:                              0.982526E+04 au^3   0.145595E+04 A^3
Pressure:                            0.257807E-04 au     0.758493E+09 Pa
>> Charges saved for restart in charges.bin

total energy  -1.9236437E+02 H       energy change -2.1959983E-03 H
gradient norm  3.5119376E-02 H/a0    max. gradient  1.1408797E-02 H/a0
step length    1.6931325E-01 a0      max. step      3.9890200E-02 a0

--------------------------------------------------------------------------------

***  Geometry step: 13

 iSCC Total electronic   Diff electronic      SCC error    
    1   -0.19434279E+03    0.00000000E+00    0.10120665E-01
    2   -0.19433997E+03    0.28157397E-02    0.58291760E-02
    3   -0.19433999E+03   -0.20938082E-04    0.81200372E-03
    4   -0.19434000E+03   -0.50523176E-05    0.16335506E-03
    5   -0.19434000E+03   -0.24118515E-06    0.48287155E-04
    6   -0.19434000E+03   -0.72349167E-08    0.12203506E-04
    7   -0.19434000E+03   -0.15151613E-09    0.12630095E-05
    8   -0.19434000E+03   -0.20207835E-10    0.25429673E-06
    9   -0.19434000E+03   -0.11084467E-11    0.64571026E-07
   10   -0.19434000E+03    0.56843419E-13    0.76101005E-08

Total Energy:                     -192.3657513062 H        -5234.5384 eV
Extrapolated to 0K:               -192.3657513062 H        -5234.5384 eV
Total Mermin free energy:         -192.3657513062 H        -5234.5384 eV
Force related energy:             -192.3657513062 H        -5234.5384 eV

Volume:                              0.983986E+04 au^3   0.145812E+04 A^3
Pressure:                            0.226391E-04 au     0.666064E+09 Pa
>> Charges saved for restart in charges.bin

total energy  -1.9236575E+02 H       energy change -1.3830469E-03 H
gradient norm  3.1604835E-02 H/a0    max. gradient  9.2764367E-03 H/a0
step length    1.2305617E-01 a0      max. step      2.6514034E-02 a0

--------------------------------------------------------------------------------

***  Geometry step: 14

 iSCC Total electronic   Diff electronic      SCC error    
    1   -0.19434000E+03    0.00000000E+00    0.56147415E-02
    2   -0.19433705E+03    0.29483424E-02    0.31045753E-02
    3   -0.19433709E+03   -0.38007468E-04    0.78596917E-03
    4   -0.19433709E+03   -0.76616484E-05    0.18110903E-03
    5   -0.19433709E+03   -0.19914012E-06    0.42054527E-04
    6   -0.19433709E+03   -0.19462192E-07    0.14299420E-04
    7   -0.19433709E+03   -0.37636028E-09    0.28393404E-05
    8   -0.19433709E+03   -0.16626700E-10    0.24556503E-06
    9   -0.19433709E+03   -0.19326762E-11    0.69044907E-07
   10   -0.19433709E+03   -0.85265128E-13    0.10057772E-07
   11   -0.19433709E+03    0.28421709E-13    0.18050375E-08

Total Energy:                     -192.3669525160 H        -5234.5711 eV
Extrapolated to 0K:               -192.3669525160 H        -5234.5711 eV
Total Mermin free energy:         -192.3669525160 H        -5234.5711 eV
Force related energy:             -192.3669525160 H        -5234.5711 eV

Volume:                              0.985834E+04 au^3   0.146086E+04 A^3
Pressure:                            0.188021E-04 au     0.553177E+09 Pa
>> Charges saved for restart in charges.bin

total energy  -1.9236695E+02 H       energy change -1.2012098E-03 H
gradient norm  2.7549886E-02 H/a0    max. gradient  6.5938780E-03 H/a0
step length    1.2302190E-01 a0      max. step      2.3161520E-02 a0

--------------------------------------------------------------------------------

***  Geometry step: 15

 iSCC Total electronic   Diff electronic      SCC error    
    1   -0.19433709E+03    0.00000000E+00    0.47690819E-02
    2   -0.19434009E+03   -0.29961943E-02    0.19109013E-02
    3   -0.19434012E+03   -0.28074402E-04    0.51861590E-03
    4   -0.19434013E+03   -0.59735725E-05    0.84510221E-04
    5   -0.19434013E+03   -0.71566518E-07    0.15634533E-04
    6   -0.19434013E+03   -0.65770678E-08    0.59209718E-05
    7   -0.19434013E+03   -0.20924062E-09    0.19834855E-05
    8   -0.19434013E+03   -0.96633812E-11    0.26878273E-06
    9   -0.19434013E+03   -0.85265128E-12    0.53756179E-07
   10   -0.19434013E+03   -0.56843419E-13    0.87656398E-08

Total Energy:                     -192.3679705075 H        -5234.5988 eV
Extrapolated to 0K:               -192.3679705075 H        -5234.5988 eV
Total Mermin free energy:         -192.3679705075 H        -5234.5988 eV
Force related energy:             -192.3679705075 H        -5234.5988 eV

Volume:                              0.986905E+04 au^3   0.146244E+04 A^3
Pressure:                            0.181987E-04 au     0.535424E+09 Pa
>> Charges saved for restart in charges.bin

total energy  -1.9236797E+02 H       energy change -1.0179915E-03 H
gradient norm  2.5432213E-02 H/a0    max. gradient  8.9298602E-03 H/a0
step length    9.2366867E-02 a0      max. step      1.6690892E-02 a0

--------------------------------------------------------------------------------

***  Geometry step: 16

 iSCC Total electronic   Diff electronic      SCC error    
    1   -0.19434013E+03    0.00000000E+00    0.74963654E-02
    2   -0.19434293E+03   -0.28044039E-02    0.42638219E-02
    3   -0.19434296E+03   -0.34160157E-04    0.98631721E-03
    4   -0.19434297E+03   -0.74979398E-05    0.13118460E-03
    5   -0.19434297E+03   -0.11960663E-06    0.43485321E-04
    6   -0.19434297E+03   -0.11857026E-07    0.12471069E-04
    7   -0.19434297E+03   -0.27344527E-09    0.23271045E-05
    8   -0.19434297E+03   -0.95496944E-11    0.34873065E-06
    9   -0.19434297E+03   -0.20179414E-11    0.78637420E-07
   10   -0.19434297E+03   -0.28421709E-13    0.75192914E-08

Total Energy:                     -192.3690061542 H        -5234.6270 eV
Extrapolated to 0K:               -192.3690061542 H        -5234.6270 eV
Total Mermin free energy:         -192.3690061542 H        -5234.6270 eV
Force related energy:             -192.3690061542 H        -5234.6270 eV

Volume:                              0.988377E+04 au^3   0.146462E+04 A^3
Pressure:                            0.178731E-04 au     0.525845E+09 Pa
>> Charges saved for restart in charges.bin

total energy  -1.9236901E+02 H       energy change -1.0356467E-03 H
gradient norm  2.4478826E-02 H/a0    max. gradient  7.5504974E-03 H/a0
step length    1.2108384E-01 a0      max. step      2.0648208E-02 a0

--------------------------------------------------------------------------------

***  Geometry step: 17

 iSCC Total electronic   Diff electronic      SCC error    
    1   -0.19434297E+03    0.00000000E+00    0.71850643E-02
    2   -0.19434134E+03    0.16333825E-02    0.41563475E-02
    3   -0.19434135E+03   -0.12303722E-04    0.84292607E-03
    4   -0.19434135E+03   -0.28212528E-05    0.87106923E-04
    5   -0.19434135E+03   -0.70506161E-07    0.26707313E-04
    6   -0.19434135E+03   -0.45221782E-08    0.62727388E-05
    7   -0.19434135E+03   -0.97088559E-10    0.12588315E-05
    8   -0.19434135E+03   -0.59401373E-11    0.23686930E-06
    9   -0.19434135E+03   -0.82422957E-12    0.54126127E-07
   10   -0.19434135E+03   -0.28421709E-13    0.62198691E-08

Total Energy:                     -192.3697838592 H        -5234.6482 eV
Extrapolated to 0K:               -192.3697838592 H        -5234.6482 eV
Total Mermin free energy:         -192.3697838592 H        -5234.6482 eV
Force related energy:             -192.3697838592 H        -5234.6482 eV

Volume:                              0.989750E+04 au^3   0.146666E+04 A^3
Pressure:                            0.163002E-04 au     0.479568E+09 Pa
>> Charges saved for restart in charges.bin

total energy  -1.9236978E+02 H       energy change -7.7770503E-04 H
gradient norm  2.1164843E-02 H/a0    max. gradient  4.9857425E-03 H/a0
step length    1.0303982E-01 a0      max. step      1.7812405E-02 a0

--------------------------------------------------------------------------------

***  Geometry step: 18

 iSCC Total electronic   Diff electronic      SCC error    
    1   -0.19434135E+03    0.00000000E+00    0.57638188E-02
    2   -0.19433695E+03    0.44028287E-02    0.33521435E-02
    3   -0.19433696E+03   -0.10334816E-04    0.74606589E-03
    4   -0.19433696E+03   -0.21530301E-05    0.81458496E-04
    5   -0.19433696E+03   -0.62209409E-07    0.28330151E-04
    6   -0.19433696E+03   -0.36382914E-08    0.65775072E-05
    7   -0.19433696E+03   -0.78927087E-10    0.10559370E-05
    8   -0.19433696E+03   -0.44622084E-11    0.25699356E-06
    9   -0.19433696E+03   -0.73896445E-12    0.56135646E-07
   10   -0.19433696E+03    0.00000000E+00    0.51490261E-08

Total Energy:                     -192.3705810469 H        -5234.6698 eV
Extrapolated to 0K:               -192.3705810469 H        -5234.6698 eV
Total Mermin free energy:         -192.3705810469 H        -5234.6698 eV
Force related energy:             -192.3705810469 H        -5234.6698 eV

Volume:                              0.991570E+04 au^3   0.146936E+04 A^3
Pressure:                            0.134628E-04 au     0.396090E+09 Pa
>> Charges saved for restart in charges.bin

total energy  -1.9237058E+02 H       energy change -7.9718767E-04 H
gradient norm  1.9894783E-02 H/a0    max. gradient  4.4100468E-03 H/a0
step length    1.2601419E-01 a0      max. step      2.2055028E-02 a0

--------------------------------------------------------------------------------

***  Geometry step: 19

 iSCC Total electronic   Diff electronic      SCC error    
    1   -0.19433696E+03    0.00000000E+00    0.33684312E-02
    2   -0.19433277E+03    0.41967458E-02    0.16553242E-02
    3   -0.19433278E+03   -0.99104677E-05    0.47486754E-03
    4   -0.19433278E+03   -0.19842209E-05    0.58820840E-04
    5   -0.19433278E+03   -0.29152289E-07    0.10242642E-04
    6   -0.19433278E+03   -0.28435636E-08    0.39316759E-05
    7   -0.19433278E+03   -0.38482995E-10    0.11982607E-05
    8   -0.19433278E+03   -0.13358203E-11    0.12554011E-06
    9   -0.19433278E+03   -0.31263880E-12    0.51509160E-07
   10   -0.19433278E+03   -0.56843419E-13    0.46154964E-08

Total Energy:                     -192.3712483761 H        -5234.6880 eV
Extrapolated to 0K:               -192.3712483761 H        -5234.6880 eV
Total Mermin free energy:         -192.3712483761 H        -5234.6880 eV
Force related energy:             -192.3712483761 H        -5234.6880 eV

Volume:                              0.993330E+04 au^3   0.147196E+04 A^3
Pressure:                            0.107771E-04 au     0.317072E+09 Pa
>> Charges saved for restart in charges.bin

total energy  -1.9237125E+02 H       energy change -6.6732919E-04 H
gradient norm  2.0888243E-02 H/a0    max. gradient  6.4695586E-03 H/a0
step length    1.1611703E-01 a0      max. step      2.0038819E-02 a0

--------------------------------------------------------------------------------

***  Geometry step: 20

 iSCC Total electronic   Diff electronic      SCC error    
    1   -0.19433278E+03    0.00000000E+00    0.43563623E-02
    2   -0.19432854E+03    0.42369109E-02    0.20552273E-02
    3   -0.19432855E+03   -0.13516546E-04    0.60002521E-03
    4   -0.19432856E+03   -0.29019119E-05    0.64089456E-04
    5   -0.19432856E+03   -0.48238576E-07    0.20038971E-04
    6   -0.19432856E+03   -0.38729979E-08    0.64293479E-05
    7   -0.19432856E+03   -0.55536020E-10    0.90697698E-06
    8   -0.19432856E+03   -0.23874236E-11    0.19758357E-06
    9   -0.19432856E+03   -0.51159077E-12    0.56814260E-07
   10   -0.19432856E+03   -0.56843419E-13    0.53703730E-08

Total Energy:                     -192.3719413579 H        -5234.7069 eV
Extrapolated to 0K:               -192.3719413579 H        -5234.7069 eV
Total Mermin free energy:         -192.3719413579 H        -5234.7069 eV
Force related energy:             -192.3719413579 H        -5234.7069 eV

Volume:                              0.995317E+04 au^3   0.147491E+04 A^3
Pressure:                            0.794005E-05 au     0.233604E+09 Pa
>> Charges saved for restart in charges.bin

total energy  -1.9237194E+02 H       energy change -6.9298181E-04 H
gradient norm  2.0002359E-02 H/a0    max. gradient  5.7881017E-03 H/a0
step length    1.2780673E-01 a0      max. step      2.1540411E-02 a0

--------------------------------------------------------------------------------

***  Geometry step: 21

 iSCC Total electronic   Diff electronic      SCC error    
    1   -0.19432856E+03    0.00000000E+00    0.44675708E-02
    2   -0.19432597E+03    0.25916964E-02    0.25417566E-02
    3   -0.19432598E+03   -0.91599383E-05    0.51158144E-03
    4   -0.19432598E+03   -0.21653934E-05    0.63704603E-04
    5   -0.19432598E+03   -0.59570709E-07    0.28203095E-04
    6   -0.19432598E+03   -0.32828780E-08    0.54584205E-05
    7   -0.19432598E+03   -0.74237505E-10    0.85645761E-06
    8   -0.19432598E+03   -0.27000624E-11    0.24831067E-06
    9   -0.19432598E+03   -0.62527761E-12    0.42385014E-07
   10   -0.19432598E+03   -0.11368684E-12    0.39908112E-08

Total Energy:                     -192.3724954593 H        -5234.7219 eV
Extrapolated to 0K:               -192.3724954593 H        -5234.7219 eV
Total Mermin free energy:         -192.3724954593 H        -5234.7219 eV
Force related energy:             -192.3724954593 H        -5234.7219 eV

Volume:                              0.996992E+04 au^3   0.147739E+04 A^3
Pressure:                            0.581720E-05 au     0.171148E+09 Pa
>> Charges saved for restart in charges.bin

total energy  -1.9237250E+02 H       energy change -5.5410141E-04 H
gradient norm  1.6728920E-02 H/a0    max. gradient  3.0646833E-03 H/a0
step length    1.1012477E-01 a0      max. step      2.1461588E-02 a0

--------------------------------------------------------------------------------

***  Geometry step: 22

 iSCC Total electronic   Diff electronic      SCC error    
    1   -0.19432598E+03    0.00000000E+00    0.37785948E-02
    2   -0.19432572E+03    0.25643337E-03    0.21825523E-02
    3   -0.19432573E+03   -0.73313761E-05    0.41444480E-03
    4   -0.19432573E+03   -0.16979056E-05    0.62444219E-04
    5   -0.19432573E+03   -0.48140947E-07    0.24327417E-04
    6   -0.19432573E+03   -0.23450184E-08    0.40596885E-05
    7   -0.19432573E+03   -0.65284667E-10    0.89085466E-06
    8   -0.19432573E+03   -0.21600499E-11    0.21667295E-06
    9   -0.19432573E+03   -0.62527761E-12    0.38061247E-07
   10   -0.19432573E+03    0.56843419E-13    0.44445434E-08

Total Energy:                     -192.3729200779 H        -5234.7335 eV
Extrapolated to 0K:               -192.3729200779 H        -5234.7335 eV
Total Mermin free energy:         -192.3729200779 H        -5234.7335 eV
Force related energy:             -192.3729200779 H        -5234.7335 eV

Volume:                              0.998212E+04 au^3   0.147920E+04 A^3
Pressure:                            0.474890E-05 au     0.139718E+09 Pa
>> Charges saved for restart in charges.bin

total energy  -1.9237292E+02 H       energy change -4.2461861E-04 H
gradient norm  1.3704076E-02 H/a0    max. gradient  2.6695127E-03 H/a0
step length    8.6276382E-02 a0      max. step      1.9757063E-02 a0

--------------------------------------------------------------------------------

***  Geometry step: 23

 iSCC Total electronic   Diff electronic      SCC error    
    1   -0.19432573E+03    0.00000000E+00    0.28518383E-02
    2   -0.19432721E+03   -0.14849542E-02    0.14958453E-02
    3   -0.19432722E+03   -0.72503734E-05    0.36799914E-03
    4   -0.19432722E+03   -0.15427391E-05    0.47719643E-04
    5   -0.19432722E+03   -0.21750111E-07    0.10930531E-04
    6   -0.19432722E+03   -0.14047430E-08    0.30343200E-05
    7   -0.19432722E+03   -0.31292302E-10    0.68480725E-06
    8   -0.19432722E+03   -0.11652901E-11    0.11198887E-06
    9   -0.19432722E+03   -0.17053026E-12    0.20220170E-07
   10   -0.19432722E+03    0.00000000E+00    0.20142128E-08

Total Energy:                     -192.3732190069 H        -5234.7416 eV
Extrapolated to 0K:               -192.3732190069 H        -5234.7416 eV
Total Mermin free energy:         -192.3732190069 H        -5234.7416 eV
Force related energy:             -192.3732190069 H        -5234.7416 eV

Volume:                              0.999042E+04 au^3   0.148043E+04 A^3
Pressure:                            0.434387E-05 au     0.127801E+09 Pa
>> Charges saved for restart in charges.bin

total energy  -1.9237322E+02 H       energy change -2.9892900E-04 H
gradient norm  1.2659329E-02 H/a0    max. gradient  4.5126992E-03 H/a0
step length    6.6711495E-02 a0      max. step      1.5554405E-02 a0

--------------------------------------------------------------------------------

***  Geometry step: 24

 iSCC Total electronic   Diff electronic      SCC error    
    1   -0.19432722E+03    0.00000000E+00    0.23998910E-02
    2   -0.19432976E+03   -0.25346711E-02    0.10779277E-02
    3   -0.19432976E+03   -0.56688411E-05    0.24671304E-03
    4   -0.19432977E+03   -0.12732145E-05    0.38293771E-04
    5   -0.19432977E+03   -0.13934823E-07    0.81250018E-05
    6   -0.19432977E+03   -0.87663921E-09    0.19413646E-05
    7   -0.19432977E+03   -0.26062708E-10    0.55774295E-06
    8   -0.19432977E+03   -0.68212103E-12    0.11156724E-06
    9   -0.19432977E+03   -0.17053026E-12    0.21441205E-07
   10   -0.19432977E+03    0.28421709E-13    0.35334193E-08

Total Energy:                     -192.3734286539 H        -5234.7473 eV
Extrapolated to 0K:               -192.3734286539 H        -5234.7473 eV
Total Mermin free energy:         -192.3734286539 H        -5234.7473 eV
Force related energy:             -192.3734286539 H        -5234.7473 eV

Volume:                              0.999567E+04 au^3   0.148121E+04 A^3
Pressure:                            0.475764E-05 au     0.139975E+09 Pa
>> Charges saved for restart in charges.bin

total energy  -1.9237343E+02 H       energy change -2.0964699E-04 H
gradient norm  1.1137671E-02 H/a0    max. gradient  3.7717541E-03 H/a0
step length    5.1091620E-02 a0      max. step      1.0719145E-02 a0

--------------------------------------------------------------------------------

***  Geometry step: 25

 iSCC Total electronic   Diff electronic      SCC error    
    1   -0.19432977E+03    0.00000000E+00    0.24208716E-02
    2   -0.19433080E+03   -0.10385901E-02    0.13283019E-02
    3   -0.19433081E+03   -0.26984111E-05    0.31745201E-03
    4   -0.19433081E+03   -0.63936571E-06    0.36230923E-04
    5   -0.19433081E+03   -0.11605692E-07    0.11550244E-04
    6   -0.19433081E+03   -0.64005690E-09    0.20338520E-05
    7   -0.19433081E+03   -0.15973001E-10    0.49000053E-06
    8   -0.19433081E+03   -0.51159077E-12    0.79786043E-07
    9   -0.19433081E+03   -0.56843419E-13    0.15111751E-07
   10   -0.19433081E+03   -0.28421709E-13    0.25560807E-08

Total Energy:                     -192.3735928317 H        -5234.7518 eV
Extrapolated to 0K:               -192.3735928317 H        -5234.7518 eV
Total Mermin free energy:         -192.3735928317 H        -5234.7518 eV
Force related energy:             -192.3735928317 H        -5234.7518 eV

Volume:                              0.100010E+05 au^3   0.148200E+04 A^3
Pressure:                            0.473470E-05 au     0.139300E+09 Pa
>> Charges saved for restart in charges.bin

total energy  -1.9237359E+02 H       energy change -1.6417776E-04 H
gradient norm  9.6908092E-03 H/a0    max. gradient  2.1705924E-03 H/a0
step length    4.2184959E-02 a0      max. step      9.4989796E-03 a0

--------------------------------------------------------------------------------

***  Geometry step: 26

 iSCC Total electronic   Diff electronic      SCC error    
    1   -0.19433081E+03    0.00000000E+00    0.27746184E-02
    2   -0.19433061E+03    0.20188663E-03    0.16688788E-02
    3   -0.19433061E+03   -0.31228094E-05    0.38596645E-03
    4   -0.19433061E+03   -0.75765450E-06    0.36915700E-04
    5   -0.19433061E+03   -0.21207683E-07    0.13996539E-04
    6   -0.19433061E+03   -0.97509201E-09    0.25463238E-05
    7   -0.19433061E+03   -0.19753088E-10    0.51895591E-06
    8   -0.19433061E+03   -0.59685590E-12    0.11227439E-06
    9   -0.19433061E+03   -0.56843419E-13    0.19214283E-07
   10   -0.19433061E+03   -0.11368684E-12    0.25776083E-08

Total Energy:                     -192.3737703615 H        -5234.7566 eV
Extrapolated to 0K:               -192.3737703615 H        -5234.7566 eV
Total Mermin free energy:         -192.3737703615 H        -5234.7566 eV
Force related energy:             -192.3737703615 H        -5234.7566 eV

Volume:                              0.100090E+05 au^3   0.148318E+04 A^3
Pressure:                            0.411142E-05 au     0.120962E+09 Pa
>> Charges saved for restart in charges.bin

total energy  -1.9237377E+02 H       energy change -1.7752981E-04 H
gradient norm  1.0109154E-02 H/a0    max. gradient  3.6731257E-03 H/a0
step length    5.3707829E-02 a0      max. step      1.1733166E-02 a0

--------------------------------------------------------------------------------

***  Geometry step: 27

 iSCC Total electronic   Diff electronic      SCC error    
    1   -0.19433061E+03    0.00000000E+00    0.23073359E-02
    2   -0.19432956E+03    0.10472800E-02    0.14212449E-02
    3   -0.19432956E+03   -0.28449375E-05    0.37974317E-03
    4   -0.19432957E+03   -0.64015438E-06    0.30215053E-04
    5   -0.19432957E+03   -0.18350903E-07    0.10124199E-04
    6   -0.19432957E+03   -0.78239282E-09    0.20838788E-05
    7   -0.19432957E+03   -0.95212727E-11    0.33976330E-06
    8   -0.19432957E+03   -0.28421709E-12    0.86143222E-07
    9   -0.19432957E+03    0.00000000E+00    0.17257038E-07
   10   -0.19432957E+03   -0.14210855E-12    0.24230702E-08

Total Energy:                     -192.3739348368 H        -5234.7611 eV
Extrapolated to 0K:               -192.3739348368 H        -5234.7611 eV
Total Mermin free energy:         -192.3739348368 H        -5234.7611 eV
Force related energy:             -192.3739348368 H        -5234.7611 eV

Volume:                              0.100182E+05 au^3   0.148455E+04 A^3
Pressure:                            0.300223E-05 au     0.883287E+08 Pa
>> Charges saved for restart in charges.bin

total energy  -1.9237393E+02 H       energy change -1.6447530E-04 H
gradient norm  1.1073942E-02 H/a0    max. gradient  4.3980811E-03 H/a0
step length    5.6623785E-02 a0      max. step      1.1007155E-02 a0

--------------------------------------------------------------------------------

***  Geometry step: 28

 iSCC Total electronic   Diff electronic      SCC error    
    1   -0.19432957E+03    0.00000000E+00    0.20238511E-02
    2   -0.19432868E+03    0.88876235E-03    0.12786279E-02
    3   -0.19432868E+03   -0.43448995E-05    0.40008980E-03
    4   -0.19432868E+03   -0.92170779E-06    0.42837260E-04
    5   -0.19432868E+03   -0.22405857E-07    0.80825351E-05
    6   -0.19432868E+03   -0.12869918E-08    0.23770111E-05
    7   -0.19432868E+03   -0.12164492E-10    0.48760697E-06
    8   -0.19432868E+03   -0.31263880E-12    0.97150341E-07
    9   -0.19432868E+03   -0.19895197E-12    0.22375818E-07
   10   -0.19432868E+03   -0.28421709E-13    0.22961526E-08

Total Energy:                     -192.3741279037 H        -5234.7664 eV
Extrapolated to 0K:               -192.3741279037 H        -5234.7664 eV
Total Mermin free energy:         -192.3741279037 H        -5234.7664 eV
Force related energy:             -192.3741279037 H        -5234.7664 eV

Volume:                              0.100295E+05 au^3   0.148622E+04 A^3
Pressure:                            0.180462E-05 au     0.530938E+08 Pa
>> Charges saved for restart in charges.bin

total energy  -1.9237413E+02 H       energy change -1.9306690E-04 H
gradient norm  1.1328334E-02 H/a0    max. gradient  3.5362198E-03 H/a0
step length    7.2085600E-02 a0      max. step      1.4729416E-02 a0

--------------------------------------------------------------------------------

***  Geometry step: 29

 iSCC Total electronic   Diff electronic      SCC error    
    1   -0.19432868E+03    0.00000000E+00    0.19092722E-02
    2   -0.19432826E+03    0.41759538E-03    0.88611970E-03
    3   -0.19432827E+03   -0.36176257E-05    0.28558595E-03
    4   -0.19432827E+03   -0.73907461E-06    0.36810623E-04
    5   -0.19432827E+03   -0.17590992E-07    0.75388144E-05
    6   -0.19432827E+03   -0.12948647E-08    0.17426324E-05
    7   -0.19432827E+03   -0.17934099E-10    0.51840245E-06
    8   -0.19432827E+03   -0.39790393E-12    0.11988200E-06
    9   -0.19432827E+03   -0.56843419E-13    0.27611835E-07
   10   -0.19432827E+03    0.00000000E+00    0.30622482E-08

Total Energy:                     -192.3743161460 H        -5234.7715 eV
Extrapolated to 0K:               -192.3743161460 H        -5234.7715 eV
Total Mermin free energy:         -192.3743161460 H        -5234.7715 eV
Force related energy:             -192.3743161460 H        -5234.7715 eV

Volume:                              0.100399E+05 au^3   0.148776E+04 A^3
Pressure:                            0.593946E-06 au     0.174745E+08 Pa
>> Charges saved for restart in charges.bin

total energy  -1.9237432E+02 H       energy change -1.8824233E-04 H
gradient norm  1.0291135E-02 H/a0    max. gradient  2.1558433E-03 H/a0
step length    7.5795752E-02 a0      max. step      1.6483535E-02 a0

--------------------------------------------------------------------------------

***  Geometry step: 30

 iSCC Total electronic   Diff electronic      SCC error    
    1   -0.19432827E+03    0.00000000E+00    0.17109189E-02
    2   -0.19432949E+03   -0.12260250E-02    0.67830235E-03
    3   -0.19432950E+03   -0.28484481E-05    0.22827841E-03
    4   -0.19432950E+03   -0.57085668E-06    0.36814125E-04
    5   -0.19432950E+03   -0.12232277E-07    0.88606495E-05
    6   -0.19432950E+03   -0.10556960E-08    0.16843609E-05
    7   -0.19432950E+03   -0.19554136E-10    0.40682729E-06
    8   -0.19432950E+03   -0.36948222E-12    0.11107793E-06
    9   -0.19432950E+03   -0.85265128E-13    0.24029342E-07
   10   -0.19432950E+03    0.28421709E-13    0.40209143E-08

Total Energy:                     -192.3744952406 H        -5234.7764 eV
Extrapolated to 0K:               -192.3744952406 H        -5234.7764 eV
Total Mermin free energy:         -192.3744952406 H        -5234.7764 eV
Force related energy:             -192.3744952406 H        -5234.7764 eV

Volume:                              0.100469E+05 au^3   0.148880E+04 A^3
Pressure:                            0.152211E-06 au     0.447821E+07 Pa
>> Charges saved for restart in charges.bin

total energy  -1.9237450E+02 H       energy change -1.7909460E-04 H
gradient norm  1.0158791E-02 H/a0    max. gradient  2.7208904E-03 H/a0
step length    7.3173359E-02 a0      max. step      1.5387982E-02 a0

--------------------------------------------------------------------------------

***  Geometry step: 31

 iSCC Total electronic   Diff electronic      SCC error    
    1   -0.19432950E+03    0.00000000E+00    0.17329291E-02
    2   -0.19433208E+03   -0.25780807E-02    0.75873337E-03
    3   -0.19433208E+03   -0.38131975E-05    0.23936412E-03
    4   -0.19433208E+03   -0.75264003E-06    0.38768949E-04
    5   -0.19433208E+03   -0.11062752E-07    0.80055151E-05
    6   -0.19433208E+03   -0.10624603E-08    0.19554577E-05
    7   -0.19433208E+03   -0.21486812E-10    0.49432703E-06
    8   -0.19433208E+03   -0.51159077E-12    0.74537546E-07
    9   -0.19433208E+03    0.11368684E-12    0.23755427E-07
   10   -0.19433208E+03   -0.11368684E-12    0.52483800E-08

Total Energy:                     -192.3746879580 H        -5234.7816 eV
Extrapolated to 0K:               -192.3746879580 H        -5234.7816 eV
Total Mermin free energy:         -192.3746879580 H        -5234.7816 eV
Force related energy:             -192.3746879580 H        -5234.7816 eV

Volume:                              0.100519E+05 au^3   0.148954E+04 A^3
Pressure:                            0.209959E-06 au     0.617721E+07 Pa
>> Charges saved for restart in charges.bin

total energy  -1.9237469E+02 H       energy change -1.9271735E-04 H
gradient norm  1.1104341E-02 H/a0    max. gradient  3.2250692E-03 H/a0
step length    8.1904238E-02 a0      max. step      1.5727808E-02 a0

--------------------------------------------------------------------------------

***  Geometry step: 32

 iSCC Total electronic   Diff electronic      SCC error    
    1   -0.19433208E+03    0.00000000E+00    0.16835192E-02
    2   -0.19433527E+03   -0.31873731E-02    0.64952476E-03
    3   -0.19433527E+03   -0.37778699E-05    0.23061703E-03
    4   -0.19433527E+03   -0.76400116E-06    0.34684083E-04
    5   -0.19433527E+03   -0.80327140E-08    0.38354554E-05
    6   -0.19433527E+03   -0.86095042E-09    0.94931769E-06
    7   -0.19433527E+03   -0.17479351E-10    0.37687013E-06
    8   -0.19433527E+03   -0.39790393E-12    0.79325689E-07
    9   -0.19433527E+03    0.56843419E-13    0.16051014E-07
   10   -0.19433527E+03   -0.11368684E-12    0.34766536E-08

Total Energy:                     -192.3748753822 H        -5234.7867 eV
Extrapolated to 0K:               -192.3748753822 H        -5234.7867 eV
Total Mermin free energy:         -192.3748753822 H        -5234.7867 eV
Force related energy:             -192.3748753822 H        -5234.7867 eV

Volume:                              0.100541E+05 au^3   0.148986E+04 A^3
Pressure:                            0.865946E-06 au     0.254770E+08 Pa
>> Charges saved for restart in charges.bin

total energy  -1.9237488E+02 H       energy change -1.8742426E-04 H
gradient norm  1.1366319E-02 H/a0    max. gradient  3.3045034E-03 H/a0
step length    7.9644466E-02 a0      max. step      1.5252994E-02 a0

--------------------------------------------------------------------------------

***  Geometry step: 33

 iSCC Total electronic   Diff electronic      SCC error    
    1   -0.19433527E+03    0.00000000E+00    0.23135097E-02
    2   -0.19433799E+03   -0.27210617E-02    0.96399117E-03
    3   -0.19433800E+03   -0.42305410E-05    0.28406833E-03
    4   -0.19433800E+03   -0.92125143E-06    0.46088868E-04
    5   -0.19433800E+03   -0.10593936E-07    0.62101971E-05
    6   -0.19433800E+03   -0.94368602E-09    0.18556747E-05
    7   -0.19433800E+03   -0.14495072E-10    0.47017591E-06
    8   -0.19433800E+03   -0.39790393E-12    0.82112775E-07
    9   -0.19433800E+03    0.28421709E-13    0.18641442E-07
   10   -0.19433800E+03   -0.11368684E-12    0.19020865E-08

Total Energy:                     -192.3750742986 H        -5234.7921 eV
Extrapolated to 0K:               -192.3750742986 H        -5234.7921 eV
Total Mermin free energy:         -192.3750742986 H        -5234.7921 eV
Force related energy:             -192.3750742986 H        -5234.7921 eV

Volume:                              0.100552E+05 au^3   0.149003E+04 A^3
Pressure:                            0.163135E-05 au     0.479959E+08 Pa
>> Charges saved for restart in charges.bin

total energy  -1.9237507E+02 H       energy change -1.9891640E-04 H
gradient norm  1.0861488E-02 H/a0    max. gradient  2.6511427E-03 H/a0
step length    8.8375616E-02 a0      max. step      1.6695470E-02 a0

--------------------------------------------------------------------------------

***  Geometry step: 34

 iSCC Total electronic   Diff electronic      SCC error    
    1   -0.19433800E+03    0.00000000E+00    0.18597099E-02
    2   -0.19433895E+03   -0.95265232E-03    0.89783856E-03
    3   -0.19433895E+03   -0.22651547E-05    0.25322740E-03
    4   -0.19433895E+03   -0.51572982E-06    0.34253154E-04
    5   -0.19433895E+03   -0.11935583E-07    0.70913089E-05
    6   -0.19433895E+03   -0.62968297E-09    0.17795173E-05
    7   -0.19433895E+03   -0.81286089E-11    0.40011687E-06
    8   -0.19433895E+03   -0.22737368E-12    0.82194583E-07
    9   -0.19433895E+03   -0.28421709E-13    0.20543480E-07
   10   -0.19433895E+03   -0.56843419E-13    0.13280044E-08

Total Energy:                     -192.3752580521 H        -5234.7971 eV
Extrapolated to 0K:               -192.3752580521 H        -5234.7971 eV
Total Mermin free energy:         -192.3752580521 H        -5234.7971 eV
Force related energy:             -192.3752580521 H        -5234.7971 eV

Volume:                              0.100567E+05 au^3   0.149026E+04 A^3
Pressure:                            0.185598E-05 au     0.546047E+08 Pa
>> Charges saved for restart in charges.bin

total energy  -1.9237526E+02 H       energy change -1.8375350E-04 H
gradient norm  1.0446771E-02 H/a0    max. gradient  2.3275365E-03 H/a0
step length    8.4492844E-02 a0      max. step      1.5631597E-02 a0

--------------------------------------------------------------------------------

***  Geometry step: 35

 iSCC Total electronic   Diff electronic      SCC error    
    1   -0.19433895E+03    0.00000000E+00    0.17768331E-02
    2   -0.19433921E+03   -0.25357387E-03    0.10184351E-02
    3   -0.19433921E+03   -0.29336834E-05    0.27541064E-03
    4   -0.19433921E+03   -0.68793042E-06    0.28725995E-04
    5   -0.19433921E+03   -0.19956843E-07    0.54913421E-05
    6   -0.19433921E+03   -0.98376063E-09    0.16805045E-05
    7   -0.19433921E+03   -0.16086688E-10    0.57568718E-06
    8   -0.19433921E+03   -0.48316906E-12    0.10621246E-06
    9   -0.19433921E+03    0.00000000E+00    0.20628415E-07
   10   -0.19433921E+03    0.00000000E+00    0.25078695E-08

Total Energy:                     -192.3754603360 H        -5234.8026 eV
Extrapolated to 0K:               -192.3754603360 H        -5234.8026 eV
Total Mermin free energy:         -192.3754603360 H        -5234.8026 eV
Force related energy:             -192.3754603360 H        -5234.8026 eV

Volume:                              0.100589E+05 au^3   0.149057E+04 A^3
Pressure:                            0.195707E-05 au     0.575789E+08 Pa
>> Charges saved for restart in charges.bin

total energy  -1.9237546E+02 H       energy change -2.0228388E-04 H
gradient norm  1.0771389E-02 H/a0    max. gradient  2.7902790E-03 H/a0
step length    9.8016225E-02 a0      max. step      1.7650308E-02 a0

--------------------------------------------------------------------------------

***  Geometry step: 36

 iSCC Total electronic   Diff electronic      SCC error    
    1   -0.19433921E+03    0.00000000E+00    0.19563765E-02
    2   -0.19433921E+03   -0.27982267E-05    0.10523417E-02
    3   -0.19433922E+03   -0.33360906E-05    0.30440388E-03
    4   -0.19433922E+03   -0.76913898E-06    0.25688833E-04
    5   -0.19433922E+03   -0.22217023E-07    0.78959278E-05
    6   -0.19433922E+03   -0.94158281E-09    0.20151492E-05
    7   -0.19433922E+03   -0.17649882E-10    0.55579998E-06
    8   -0.19433922E+03   -0.56843419E-12    0.14402335E-06
    9   -0.19433922E+03   -0.56843419E-13    0.28586619E-07
   10   -0.19433922E+03    0.00000000E+00    0.41345918E-08

Total Energy:                     -192.3756372928 H        -5234.8074 eV
Extrapolated to 0K:               -192.3756372928 H        -5234.8074 eV
Total Mermin free energy:         -192.3756372928 H        -5234.8074 eV
Force related energy:             -192.3756372928 H        -5234.8074 eV

Volume:                              0.100609E+05 au^3   0.149087E+04 A^3
Pressure:                            0.184785E-05 au     0.543656E+08 Pa
>> Charges saved for restart in charges.bin

total energy  -1.9237564E+02 H       energy change -1.7695674E-04 H
gradient norm  1.0531564E-02 H/a0    max. gradient  2.8037769E-03 H/a0
step length    9.3759846E-02 a0      max. step      1.6473191E-02 a0

--------------------------------------------------------------------------------

***  Geometry step: 37

 iSCC Total electronic   Diff electronic      SCC error    
    1   -0.19433922E+03    0.00000000E+00    0.16311565E-02
    2   -0.19434019E+03   -0.97109023E-03    0.96172140E-03
    3   -0.19434019E+03   -0.28604994E-05    0.27194951E-03
    4   -0.19434019E+03   -0.67330967E-06    0.28876559E-04
    5   -0.19434019E+03   -0.15111965E-07    0.78066559E-05
    6   -0.19434019E+03   -0.76119022E-09    0.14738942E-05
    7   -0.19434019E+03   -0.16228796E-10    0.41170289E-06
    8   -0.19434019E+03   -0.42632564E-12    0.12649465E-06
    9   -0.19434019E+03   -0.56843419E-13    0.24624171E-07
   10   -0.19434019E+03   -0.85265128E-13    0.23252258E-08

Total Energy:                     -192.3757872270 H        -5234.8115 eV
Extrapolated to 0K:               -192.3757872270 H        -5234.8115 eV
Total Mermin free energy:         -192.3757872270 H        -5234.8115 eV
Force related energy:             -192.3757872270 H        -5234.8115 eV

Volume:                              0.100618E+05 au^3   0.149100E+04 A^3
Pressure:                            0.201239E-05 au     0.592064E+08 Pa
>> Charges saved for restart in charges.bin

total energy  -1.9237579E+02 H       energy change -1.4993427E-04 H
gradient norm  9.0835804E-03 H/a0    max. gradient  2.2172084E-03 H/a0
step length    7.7807213E-02 a0      max. step      1.3624920E-02 a0

--------------------------------------------------------------------------------

***  Geometry step: 38

 iSCC Total electronic   Diff electronic      SCC error    
    1   -0.19434019E+03    0.00000000E+00    0.17643632E-02
    2   -0.19434211E+03   -0.19116201E-02    0.10263467E-02
    3   -0.19434211E+03   -0.23478276E-05    0.23285806E-03
    4   -0.19434211E+03   -0.55086798E-06    0.27219006E-04
    5   -0.19434211E+03   -0.11036661E-07    0.92394283E-05
    6   -0.19434211E+03   -0.62217964E-09    0.19969378E-05
    7   -0.19434211E+03   -0.11851853E-10    0.40358696E-06
    8   -0.19434211E+03   -0.48316906E-12    0.66112121E-07
    9   -0.19434211E+03   -0.56843419E-13    0.16827983E-07
   10   -0.19434211E+03    0.00000000E+00    0.16881261E-08

Total Energy:                     -192.3759172758 H        -5234.8151 eV
Extrapolated to 0K:               -192.3759172758 H        -5234.8151 eV
Total Mermin free energy:         -192.3759172758 H        -5234.8151 eV
Force related energy:             -192.3759172758 H        -5234.8151 eV

Volume:                              0.100618E+05 au^3   0.149100E+04 A^3
Pressure:                            0.245105E-05 au     0.721123E+08 Pa
>> Charges saved for restart in charges.bin

total energy  -1.9237592E+02 H       energy change -1.3004872E-04 H
gradient norm  7.8926250E-03 H/a0    max. gradient  1.5494049E-03 H/a0
step length    7.3198053E-02 a0      max. step      1.4160524E-02 a0

--------------------------------------------------------------------------------

***  Geometry step: 39

 iSCC Total electronic   Diff electronic      SCC error    
    1   -0.19434211E+03    0.00000000E+00    0.12808830E-02
    2   -0.19434410E+03   -0.19935411E-02    0.74917871E-03
    3   -0.19434410E+03   -0.13011201E-05    0.17639176E-03
    4   -0.19434410E+03   -0.29437999E-06    0.21127674E-04
    5   -0.19434410E+03   -0.49642210E-08    0.64356226E-05
    6   -0.19434410E+03   -0.32670755E-09    0.12762936E-05
    7   -0.19434410E+03   -0.11482371E-10    0.22525152E-06
    8   -0.19434410E+03   -0.25579538E-12    0.69098710E-07
    9   -0.19434410E+03   -0.28421709E-13    0.14982897E-07
   10   -0.19434410E+03    0.85265128E-13    0.19002524E-08

Total Energy:                     -192.3760130864 H        -5234.8177 eV
Extrapolated to 0K:               -192.3760130864 H        -5234.8177 eV
Total Mermin free energy:         -192.3760130864 H        -5234.8177 eV
Force related energy:             -192.3760130864 H        -5234.8177 eV

Volume:                              0.100618E+05 au^3   0.149100E+04 A^3
Pressure:                            0.284042E-05 au     0.835679E+08 Pa
>> Charges saved for restart in charges.bin

total energy  -1.9237601E+02 H       energy change -9.5810643E-05 H
gradient norm  7.7340566E-03 H/a0    max. gradient  1.4765617E-03 H/a0
step length    5.2473660E-02 a0      max. step      1.0948453E-02 a0

--------------------------------------------------------------------------------

***  Geometry step: 40

 iSCC Total electronic   Diff electronic      SCC error    
    1   -0.19434410E+03    0.00000000E+00    0.13600938E-02
    2   -0.19434662E+03   -0.25170454E-02    0.75622193E-03
    3   -0.19434662E+03   -0.20572060E-05    0.18926078E-03
    4   -0.19434662E+03   -0.45453925E-06    0.27470443E-04
    5   -0.19434662E+03   -0.77601214E-08    0.63163285E-05
    6   -0.19434662E+03   -0.56328986E-09    0.11062328E-05
    7   -0.19434662E+03   -0.20691004E-10    0.32078323E-06
    8   -0.19434662E+03   -0.45474735E-12    0.89505702E-07
    9   -0.19434662E+03   -0.11368684E-12    0.17116013E-07
   10   -0.19434662E+03    0.28421709E-13    0.27159732E-08

Total Energy:                     -192.3761157428 H        -5234.8205 eV
Extrapolated to 0K:               -192.3761157428 H        -5234.8205 eV
Total Mermin free energy:         -192.3761157428 H        -5234.8205 eV
Force related energy:             -192.3761157428 H        -5234.8205 eV

Volume:                              0.100624E+05 au^3   0.149109E+04 A^3
Pressure:                            0.347158E-05 au     0.102137E+09 Pa
>> Charges saved for restart in charges.bin

total energy  -1.9237612E+02 H       energy change -1.0265637E-04 H
gradient norm  7.8813875E-03 H/a0    max. gradient  2.0107023E-03 H/a0
step length    6.1548631E-02 a0      max. step      1.3112122E-02 a0

--------------------------------------------------------------------------------

***  Geometry step: 41

 iSCC Total electronic   Diff electronic      SCC error    
    1   -0.19434662E+03    0.00000000E+00    0.12783347E-02
    2   -0.19434733E+03   -0.70593796E-03    0.72870242E-03
    3   -0.19434733E+03   -0.13173142E-05    0.18052889E-03
    4   -0.19434733E+03   -0.28406362E-06    0.25445919E-04
    5   -0.19434733E+03   -0.52829421E-08    0.60613023E-05
    6   -0.19434733E+03   -0.41390535E-09    0.10475374E-05
    7   -0.19434733E+03   -0.14125590E-10    0.22474727E-06
    8   -0.19434733E+03   -0.19895197E-12    0.70414883E-07
    9   -0.19434733E+03   -0.28421709E-13    0.16860095E-07
   10   -0.19434733E+03   -0.28421709E-13    0.19760984E-08

Total Energy:                     -192.3761959254 H        -5234.8226 eV
Extrapolated to 0K:               -192.3761959254 H        -5234.8226 eV
Total Mermin free energy:         -192.3761959254 H        -5234.8226 eV
Force related energy:             -192.3761959254 H        -5234.8226 eV

Volume:                              0.100648E+05 au^3   0.149145E+04 A^3
Pressure:                            0.353288E-05 au     0.103941E+09 Pa
>> Charges saved for restart in charges.bin

total energy  -1.9237620E+02 H       energy change -8.0182669E-05 H
gradient norm  7.2292072E-03 H/a0    max. gradient  1.6346379E-03 H/a0
step length    4.9610714E-02 a0      max. step      1.0242330E-02 a0

--------------------------------------------------------------------------------

***  Geometry step: 42

 iSCC Total electronic   Diff electronic      SCC error    
    1   -0.19434733E+03    0.00000000E+00    0.16736274E-02
    2   -0.19434699E+03    0.34141549E-03    0.75916910E-03
    3   -0.19434699E+03   -0.17658127E-05    0.19128735E-03
    4   -0.19434699E+03   -0.40005762E-06    0.36469646E-04
    5   -0.19434699E+03   -0.63455445E-08    0.59905684E-05
    6   -0.19434699E+03   -0.53901772E-09    0.14185051E-05
    7   -0.19434699E+03   -0.14779289E-10    0.34370413E-06
    8   -0.19434699E+03   -0.31263880E-12    0.84927537E-07
    9   -0.19434699E+03   -0.85265128E-13    0.21033335E-07
   10   -0.19434699E+03    0.00000000E+00    0.18599735E-08

Total Energy:                     -192.3762853799 H        -5234.8251 eV
Extrapolated to 0K:               -192.3762853799 H        -5234.8251 eV
Total Mermin free energy:         -192.3762853799 H        -5234.8251 eV
Force related energy:             -192.3762853799 H        -5234.8251 eV

Volume:                              0.100693E+05 au^3   0.149212E+04 A^3
Pressure:                            0.308669E-05 au     0.908136E+08 Pa
>> Charges saved for restart in charges.bin

total energy  -1.9237629E+02 H       energy change -8.9454496E-05 H
gradient norm  6.6273990E-03 H/a0    max. gradient  1.6511438E-03 H/a0
step length    5.9581955E-02 a0      max. step      1.1846394E-02 a0

--------------------------------------------------------------------------------

***  Geometry step: 43

 iSCC Total electronic   Diff electronic      SCC error    
    1   -0.19434699E+03    0.00000000E+00    0.12746912E-02
    2   -0.19434632E+03    0.67265472E-03    0.57792035E-03
    3   -0.19434632E+03   -0.13746054E-05    0.14268852E-03
    4   -0.19434632E+03   -0.29630328E-06    0.28662292E-04
    5   -0.19434632E+03   -0.44976787E-08    0.37350718E-05
    6   -0.19434632E+03   -0.40986947E-09    0.96363471E-06
    7   -0.19434632E+03   -0.90949470E-11    0.24709446E-06
    8   -0.19434632E+03   -0.17053026E-12    0.71723322E-07
    9   -0.19434632E+03   -0.56843419E-13    0.16701855E-07
   10   -0.19434632E+03    0.00000000E+00    0.15348629E-08

Total Energy:                     -192.3763615403 H        -5234.8271 eV
Extrapolated to 0K:               -192.3763615403 H        -5234.8271 eV
Total Mermin free energy:         -192.3763615403 H        -5234.8271 eV
Force related energy:             -192.3763615403 H        -5234.8271 eV

Volume:                              0.100745E+05 au^3   0.149288E+04 A^3
Pressure:                            0.253196E-05 au     0.744929E+08 Pa
>> Charges saved for restart in charges.bin

total energy  -1.9237636E+02 H       energy change -7.6160339E-05 H
gradient norm  7.0255624E-03 H/a0    max. gradient  1.7148512E-03 H/a0
step length    5.4308908E-02 a0      max. step      1.0505820E-02 a0

--------------------------------------------------------------------------------

***  Geometry step: 44

 iSCC Total electronic   Diff electronic      SCC error    
    1   -0.19434632E+03    0.00000000E+00    0.11724672E-02
    2   -0.19434553E+03    0.79030332E-03    0.48264597E-03
    3   -0.19434553E+03   -0.13084616E-05    0.13854591E-03
    4   -0.19434553E+03   -0.27866534E-06    0.26206065E-04
    5   -0.19434553E+03   -0.32362095E-08    0.27731035E-05
    6   -0.19434553E+03   -0.31283776E-09    0.43545648E-06
    7   -0.19434553E+03   -0.86401997E-11    0.20537705E-06
    8   -0.19434553E+03   -0.56843419E-13    0.50223693E-07
    9   -0.19434553E+03    0.28421709E-13    0.80639553E-08

Total Energy:                     -192.3764433404 H        -5234.8294 eV
Extrapolated to 0K:               -192.3764433404 H        -5234.8294 eV
Total Mermin free energy:         -192.3764433404 H        -5234.8294 eV
Force related energy:             -192.3764433404 H        -5234.8294 eV

Volume:                              0.100808E+05 au^3   0.149382E+04 A^3
Pressure:                            0.178414E-05 au     0.524913E+08 Pa
>> Charges saved for restart in charges.bin

total energy  -1.9237644E+02 H       energy change -8.1800174E-05 H
gradient norm  7.4947351E-03 H/a0    max. gradient  1.7653036E-03 H/a0
step length    6.3253748E-02 a0      max. step      1.2469392E-02 a0

--------------------------------------------------------------------------------

***  Geometry step: 45

 iSCC Total electronic   Diff electronic      SCC error    
    1   -0.19434553E+03    0.00000000E+00    0.11594590E-02
    2   -0.19434529E+03    0.24050206E-03    0.64798750E-03
    3   -0.19434529E+03   -0.13491274E-05    0.16974024E-03
    4   -0.19434529E+03   -0.28310558E-06    0.20906214E-04
    5   -0.19434529E+03   -0.32925414E-08    0.49485569E-05
    6   -0.19434529E+03   -0.31229774E-09    0.11420712E-05
    7   -0.19434529E+03   -0.73612227E-11    0.24196432E-06
    8   -0.19434529E+03   -0.28421709E-13    0.44734567E-07
    9   -0.19434529E+03   -0.85265128E-13    0.12547653E-07
   10   -0.19434529E+03    0.56843419E-13    0.13886918E-08

Total Energy:                     -192.3765319205 H        -5234.8318 eV
Extrapolated to 0K:               -192.3765319205 H        -5234.8318 eV
Total Mermin free energy:         -192.3765319205 H        -5234.8318 eV
Force related energy:             -192.3765319205 H        -5234.8318 eV

Volume:                              0.100873E+05 au^3   0.149479E+04 A^3
Pressure:                            0.117540E-05 au     0.345816E+08 Pa
>> Charges saved for restart in charges.bin

total energy  -1.9237653E+02 H       energy change -8.8580020E-05 H
gradient norm  7.1921437E-03 H/a0    max. gradient  1.4602043E-03 H/a0
step length    7.0096329E-02 a0      max. step      1.4108930E-02 a0

--------------------------------------------------------------------------------

***  Geometry step: 46

 iSCC Total electronic   Diff electronic      SCC error    
    1   -0.19434529E+03    0.00000000E+00    0.12765935E-02
    2   -0.19434569E+03   -0.39843561E-03    0.61653371E-03
    3   -0.19434569E+03   -0.12648558E-05    0.14136679E-03
    4   -0.19434569E+03   -0.29466969E-06    0.16490403E-04
    5   -0.19434569E+03   -0.37971404E-08    0.62283977E-05
    6   -0.19434569E+03   -0.27125679E-09    0.12719436E-05
    7   -0.19434569E+03   -0.63380412E-11    0.20690043E-06
    8   -0.19434569E+03   -0.19895197E-12    0.51043160E-07
    9   -0.19434569E+03   -0.28421709E-13    0.15031968E-07
   10   -0.19434569E+03    0.85265128E-13    0.10753061E-08

Total Energy:                     -192.3766167722 H        -5234.8341 eV
Extrapolated to 0K:               -192.3766167722 H        -5234.8341 eV
Total Mermin free energy:         -192.3766167722 H        -5234.8341 eV
Force related energy:             -192.3766167722 H        -5234.8341 eV

Volume:                              0.100934E+05 au^3   0.149568E+04 A^3
Pressure:                            0.674836E-06 au     0.198543E+08 Pa
>> Charges saved for restart in charges.bin

total energy  -1.9237662E+02 H       energy change -8.4851746E-05 H
gradient norm  6.7413245E-03 H/a0    max. gradient  1.3353777E-03 H/a0
step length    7.3386577E-02 a0      max. step      1.5141814E-02 a0

--------------------------------------------------------------------------------

***  Geometry step: 47

 iSCC Total electronic   Diff electronic      SCC error    
    1   -0.19434569E+03    0.00000000E+00    0.16431841E-02
    2   -0.19434693E+03   -0.12364906E-02    0.67653508E-03
    3   -0.19434693E+03   -0.12481424E-05    0.14185368E-03
    4   -0.19434693E+03   -0.31581564E-06    0.17797255E-04
    5   -0.19434693E+03   -0.36034464E-08    0.48852577E-05
    6   -0.19434693E+03   -0.30013325E-09    0.97622791E-06
    7   -0.19434693E+03   -0.43200998E-11    0.19721048E-06
    8   -0.19434693E+03   -0.56843419E-13    0.45246548E-07
    9   -0.19434693E+03   -0.28421709E-13    0.15038831E-07
   10   -0.19434693E+03    0.00000000E+00    0.16406059E-08

Total Energy:                     -192.3766920682 H        -5234.8361 eV
Extrapolated to 0K:               -192.3766920682 H        -5234.8361 eV
Total Mermin free energy:         -192.3766920682 H        -5234.8361 eV
Force related energy:             -192.3766920682 H        -5234.8361 eV

Volume:                              0.100974E+05 au^3   0.149628E+04 A^3
Pressure:                            0.640821E-06 au     0.188536E+08 Pa
>> Charges saved for restart in charges.bin

total energy  -1.9237669E+02 H       energy change -7.5295977E-05 H
gradient norm  6.7484574E-03 H/a0    max. gradient  1.3787164E-03 H/a0
step length    6.6417617E-02 a0      max. step      1.4192545E-02 a0

--------------------------------------------------------------------------------

***  Geometry step: 48

 iSCC Total electronic   Diff electronic      SCC error    
    1   -0.19434693E+03    0.00000000E+00    0.14860819E-02
    2   -0.19434844E+03   -0.15141002E-02    0.61488391E-03
    3   -0.19434845E+03   -0.15740395E-05    0.17408806E-03
    4   -0.19434845E+03   -0.37885459E-06    0.16996246E-04
    5   -0.19434845E+03   -0.49820983E-08    0.30175254E-05
    6   -0.19434845E+03   -0.45096726E-09    0.86814665E-06
    7   -0.19434845E+03   -0.72475359E-11    0.30515515E-06
    8   -0.19434845E+03   -0.19895197E-12    0.46272849E-07
    9   -0.19434845E+03    0.28421709E-13    0.11258966E-07
   10   -0.19434845E+03    0.00000000E+00    0.20161477E-08

Total Energy:                     -192.3767715903 H        -5234.8383 eV
Extrapolated to 0K:               -192.3767715903 H        -5234.8383 eV
Total Mermin free energy:         -192.3767715903 H        -5234.8383 eV
Force related energy:             -192.3767715903 H        -5234.8383 eV

Volume:                              0.101009E+05 au^3   0.149679E+04 A^3
Pressure:                            0.699471E-06 au     0.205791E+08 Pa
>> Charges saved for restart in charges.bin

total energy  -1.9237677E+02 H       energy change -7.9522078E-05 H
gradient norm  7.1484823E-03 H/a0    max. gradient  1.8638698E-03 H/a0
step length    6.9520229E-02 a0      max. step      1.4972881E-02 a0

--------------------------------------------------------------------------------

***  Geometry step: 49

 iSCC Total electronic   Diff electronic      SCC error    
    1   -0.19434845E+03    0.00000000E+00    0.12629377E-02
    2   -0.19434984E+03   -0.13950596E-02    0.55960478E-03
    3   -0.19434984E+03   -0.14957618E-05    0.16976351E-03
    4   -0.19434984E+03   -0.32300287E-06    0.18727219E-04
    5   -0.19434984E+03   -0.58450667E-08    0.32428531E-05
    6   -0.19434984E+03   -0.42186343E-09    0.89777871E-06
    7   -0.19434984E+03   -0.79580786E-11    0.33013749E-06
    8   -0.19434984E+03   -0.85265128E-13    0.53825234E-07
    9   -0.19434984E+03   -0.28421709E-13    0.11548686E-07
   10   -0.19434984E+03   -0.28421709E-13    0.13796768E-08

Total Energy:                     -192.3768555094 H        -5234.8406 eV
Extrapolated to 0K:               -192.3768555094 H        -5234.8406 eV
Total Mermin free energy:         -192.3768555094 H        -5234.8406 eV
Force related energy:             -192.3768555094 H        -5234.8406 eV

Volume:                              0.101039E+05 au^3   0.149724E+04 A^3
Pressure:                            0.824046E-06 au     0.242443E+08 Pa
>> Charges saved for restart in charges.bin

total energy  -1.9237686E+02 H       energy change -8.3919109E-05 H
gradient norm  7.1245329E-03 H/a0    max. gradient  1.6629480E-03 H/a0
step length    7.1514379E-02 a0      max. step      1.5462662E-02 a0

--------------------------------------------------------------------------------

***  Geometry step: 50

 iSCC Total electronic   Diff electronic      SCC error    
    1   -0.19434984E+03    0.00000000E+00    0.15399515E-02
    2   -0.19435059E+03   -0.75000436E-03    0.62601649E-03
    3   -0.19435060E+03   -0.16286235E-05    0.20156722E-03
    4   -0.19435060E+03   -0.33443243E-06    0.20616999E-04
    5   -0.19435060E+03   -0.60756520E-08    0.30266397E-05
    6   -0.19435060E+03   -0.47006665E-09    0.81785843E-06
    7   -0.19435060E+03   -0.67927886E-11    0.31548552E-06
    8   -0.19435060E+03   -0.85265128E-13    0.51643584E-07
    9   -0.19435060E+03    0.28421709E-13    0.11306379E-07
   10   -0.19435060E+03   -0.11368684E-12    0.98688524E-09

Total Energy:                     -192.3769383885 H        -5234.8428 eV
Extrapolated to 0K:               -192.3769383885 H        -5234.8428 eV
Total Mermin free energy:         -192.3769383885 H        -5234.8428 eV
Force related energy:             -192.3769383885 H        -5234.8428 eV

Volume:                              0.101070E+05 au^3   0.149770E+04 A^3
Pressure:                            0.800132E-06 au     0.235407E+08 Pa
>> Charges saved for restart in charges.bin

total energy  -1.9237694E+02 H       energy change -8.2879124E-05 H
gradient norm  6.8988503E-03 H/a0    max. gradient  1.4371593E-03 H/a0
step length    7.3420918E-02 a0      max. step      1.5464398E-02 a0

--------------------------------------------------------------------------------

***  Geometry step: 51

 iSCC Total electronic   Diff electronic      SCC error    
    1   -0.19435060E+03    0.00000000E+00    0.13399219E-02
    2   -0.19435045E+03    0.14277278E-03    0.60283082E-03
    3   -0.19435045E+03   -0.12276824E-05    0.19536129E-03
    4   -0.19435045E+03   -0.26959160E-06    0.17371119E-04
    5   -0.19435045E+03   -0.44216790E-08    0.21545724E-05
    6   -0.19435045E+03   -0.42771831E-09    0.68227374E-06
    7   -0.19435045E+03   -0.45474735E-11    0.27379790E-06
    8   -0.19435045E+03   -0.11368684E-12    0.34525664E-07
    9   -0.19435045E+03    0.28421709E-13    0.11946726E-07
   10   -0.19435045E+03    0.00000000E+00    0.89116003E-09

Total Energy:                     -192.3770145568 H        -5234.8449 eV
Extrapolated to 0K:               -192.3770145568 H        -5234.8449 eV
Total Mermin free energy:         -192.3770145568 H        -5234.8449 eV
Force related energy:             -192.3770145568 H        -5234.8449 eV

Volume:                              0.101101E+05 au^3   0.149816E+04 A^3
Pressure:                            0.530961E-06 au     0.156214E+08 Pa
>> Charges saved for restart in charges.bin

total energy  -1.9237701E+02 H       energy change -7.6168317E-05 H
gradient norm  6.7726086E-03 H/a0    max. gradient  1.3868392E-03 H/a0
step length    6.4773904E-02 a0      max. step      1.3312653E-02 a0

--------------------------------------------------------------------------------

***  Geometry step: 52

 iSCC Total electronic   Diff electronic      SCC error    
    1   -0.19435045E+03    0.00000000E+00    0.12285561E-02
[...]
Total Mermin free energy:         -192.3797388057 H        -5234.9190 eV
Force related energy:             -192.3797388057 H        -5234.9190 eV

Volume:                              0.999319E+04 au^3   0.148084E+04 A^3
Pressure:                            0.137402E-06 au     0.404250E+07 Pa
>> Charges saved for restart in charges.bin

total energy  -1.9237974E+02 H       energy change -2.3290924E-06 H
gradient norm  1.1248548E-03 H/a0    max. gradient  2.3592587E-04 H/a0
step length    2.0055228E-02 a0      max. step      4.8518334E-03 a0

--------------------------------------------------------------------------------

***  Geometry step: 163

 iSCC Total electronic   Diff electronic      SCC error    
    1   -0.19434408E+03    0.00000000E+00    0.12187544E-03
    2   -0.19434413E+03   -0.51594138E-04    0.60330897E-04
    3   -0.19434413E+03   -0.21485988E-07    0.19677345E-04
    4   -0.19434413E+03   -0.46450168E-08    0.21035363E-05
    5   -0.19434413E+03   -0.54058091E-10    0.32305357E-06
    6   -0.19434413E+03   -0.44906301E-11    0.61576057E-07
    7   -0.19434413E+03    0.00000000E+00    0.11682530E-07
    8   -0.19434413E+03   -0.56843419E-13    0.29101335E-08

Total Energy:                     -192.3797405075 H        -5234.9191 eV
Extrapolated to 0K:               -192.3797405075 H        -5234.9191 eV
Total Mermin free energy:         -192.3797405075 H        -5234.9191 eV
Force related energy:             -192.3797405075 H        -5234.9191 eV

Volume:                              0.999308E+04 au^3   0.148082E+04 A^3
Pressure:                            0.163878E-06 au     0.482146E+07 Pa
>> Charges saved for restart in charges.bin

total energy  -1.9237974E+02 H       energy change -1.7018389E-06 H
gradient norm  1.0846290E-03 H/a0    max. gradient  2.2684921E-04 H/a0
step length    3.3293351E-03 a0      max. step      8.4448866E-04 a0

--------------------------------------------------------------------------------

***  Geometry step: 164

 iSCC Total electronic   Diff electronic      SCC error    
    1   -0.19434413E+03    0.00000000E+00    0.27464103E-03
    2   -0.19434413E+03   -0.43934895E-06    0.12517839E-03
    3   -0.19434413E+03   -0.70832129E-07    0.35976671E-04
    4   -0.19434413E+03   -0.15151358E-07    0.41661184E-05
    5   -0.19434413E+03   -0.18161472E-09    0.56903561E-06
    6   -0.19434413E+03   -0.14125590E-10    0.16185781E-06
    7   -0.19434413E+03   -0.22737368E-12    0.34028317E-07
    8   -0.19434413E+03    0.00000000E+00    0.86493923E-08

Total Energy:                     -192.3797437432 H        -5234.9192 eV
Extrapolated to 0K:               -192.3797437432 H        -5234.9192 eV
Total Mermin free energy:         -192.3797437432 H        -5234.9192 eV
Force related energy:             -192.3797437432 H        -5234.9192 eV

Volume:                              0.999271E+04 au^3   0.148077E+04 A^3
Pressure:                            0.189243E-06 au     0.556773E+07 Pa
>> Charges saved for restart in charges.bin

total energy  -1.9237974E+02 H       energy change -3.2356891E-06 H
gradient norm  1.1711672E-03 H/a0    max. gradient  2.2221897E-04 H/a0
step length    1.0968138E-02 a0      max. step      2.6889811E-03 a0

--------------------------------------------------------------------------------

***  Geometry step: 165

 iSCC Total electronic   Diff electronic      SCC error    
    1   -0.19434413E+03    0.00000000E+00    0.22636209E-03
    2   -0.19434404E+03    0.89830155E-04    0.10773437E-03
    3   -0.19434404E+03   -0.35037687E-07    0.26310765E-04
    4   -0.19434404E+03   -0.71533179E-08    0.36193429E-05
    5   -0.19434404E+03   -0.12906298E-09    0.50014150E-06
    6   -0.19434404E+03   -0.11539214E-10    0.14194535E-06
    7   -0.19434404E+03   -0.17053026E-12    0.19357149E-07
    8   -0.19434404E+03   -0.85265128E-13    0.51903823E-08

Total Energy:                     -192.3797463190 H        -5234.9192 eV
Extrapolated to 0K:               -192.3797463190 H        -5234.9192 eV
Total Mermin free energy:         -192.3797463190 H        -5234.9192 eV
Force related energy:             -192.3797463190 H        -5234.9192 eV

Volume:                              0.999216E+04 au^3   0.148069E+04 A^3
Pressure:                            0.172019E-06 au     0.506097E+07 Pa
>> Charges saved for restart in charges.bin

total energy  -1.9237975E+02 H       energy change -2.5758203E-06 H
gradient norm  1.2107787E-03 H/a0    max. gradient  2.4759024E-04 H/a0
step length    1.6934387E-02 a0      max. step      4.0198525E-03 a0

--------------------------------------------------------------------------------

***  Geometry step: 166

 iSCC Total electronic   Diff electronic      SCC error    
    1   -0.19434404E+03    0.00000000E+00    0.22297475E-03
    2   -0.19434395E+03    0.86264047E-04    0.10668404E-03
    3   -0.19434395E+03   -0.36417816E-07    0.26432846E-04
    4   -0.19434395E+03   -0.75409901E-08    0.37743171E-05
    5   -0.19434395E+03   -0.10419399E-09    0.55414667E-06
    6   -0.19434395E+03   -0.92370556E-11    0.16291271E-06
    7   -0.19434395E+03   -0.28421709E-13    0.16148096E-07
    8   -0.19434395E+03    0.00000000E+00    0.38135699E-08

Total Energy:                     -192.3797486487 H        -5234.9193 eV
Extrapolated to 0K:               -192.3797486487 H        -5234.9193 eV
Total Mermin free energy:         -192.3797486487 H        -5234.9193 eV
Force related energy:             -192.3797486487 H        -5234.9193 eV

Volume:                              0.999156E+04 au^3   0.148060E+04 A^3
Pressure:                            0.158190E-06 au     0.465412E+07 Pa
>> Charges saved for restart in charges.bin

total energy  -1.9237975E+02 H       energy change -2.3297095E-06 H
gradient norm  1.0469641E-03 H/a0    max. gradient  2.6202144E-04 H/a0
step length    1.7012577E-02 a0      max. step      4.1663499E-03 a0

--------------------------------------------------------------------------------

***  Geometry step: 167

 iSCC Total electronic   Diff electronic      SCC error    
    1   -0.19434395E+03    0.00000000E+00    0.21438099E-03
    2   -0.19434391E+03    0.39842604E-04    0.84103861E-04
    3   -0.19434391E+03   -0.34676219E-07    0.25564398E-04
    4   -0.19434391E+03   -0.74263085E-08    0.29768317E-05
    5   -0.19434391E+03   -0.81172402E-10    0.42627305E-06
    6   -0.19434391E+03   -0.68496320E-11    0.97462122E-07
    7   -0.19434391E+03   -0.28421709E-13    0.11180360E-07
    8   -0.19434391E+03   -0.56843419E-13    0.30147422E-08

Total Energy:                     -192.3797503152 H        -5234.9194 eV
Extrapolated to 0K:               -192.3797503152 H        -5234.9194 eV
Total Mermin free energy:         -192.3797503152 H        -5234.9194 eV
Force related energy:             -192.3797503152 H        -5234.9194 eV

Volume:                              0.999150E+04 au^3   0.148059E+04 A^3
Pressure:                            0.133845E-06 au     0.393785E+07 Pa
>> Charges saved for restart in charges.bin

total energy  -1.9237975E+02 H       energy change -1.6664303E-06 H
gradient norm  8.5371563E-04 H/a0    max. gradient  2.2282578E-04 H/a0
step length    5.8698326E-03 a0      max. step      1.1525408E-03 a0

--------------------------------------------------------------------------------

***  Geometry step: 168

 iSCC Total electronic   Diff electronic      SCC error    
    1   -0.19434391E+03    0.00000000E+00    0.20700536E-03
    2   -0.19434386E+03    0.53394778E-04    0.84845455E-04
    3   -0.19434386E+03   -0.30855830E-07    0.20593385E-04
    4   -0.19434386E+03   -0.67323640E-08    0.25913366E-05
    5   -0.19434386E+03   -0.85549345E-10    0.46555430E-06
    6   -0.19434386E+03   -0.81570306E-11    0.92360105E-07
    7   -0.19434386E+03   -0.14210855E-12    0.15456633E-07
    8   -0.19434386E+03    0.56843419E-13    0.42341926E-08

Total Energy:                     -192.3797515266 H        -5234.9194 eV
Extrapolated to 0K:               -192.3797515266 H        -5234.9194 eV
Total Mermin free energy:         -192.3797515266 H        -5234.9194 eV
Force related energy:             -192.3797515266 H        -5234.9194 eV

Volume:                              0.999147E+04 au^3   0.148058E+04 A^3
Pressure:                            0.109305E-06 au     0.321585E+07 Pa
>> Charges saved for restart in charges.bin

total energy  -1.9237975E+02 H       energy change -1.2114670E-06 H
gradient norm  7.5098164E-04 H/a0    max. gradient  1.4515509E-04 H/a0
step length    3.7592561E-03 a0      max. step      7.6235335E-04 a0

--------------------------------------------------------------------------------

***  Geometry step: 169

 iSCC Total electronic   Diff electronic      SCC error    
    1   -0.19434386E+03    0.00000000E+00    0.99174389E-04
    2   -0.19434383E+03    0.28249825E-04    0.55186693E-04
    3   -0.19434383E+03   -0.14061101E-07    0.19181332E-04
    4   -0.19434383E+03   -0.32167691E-08    0.21620811E-05
    5   -0.19434383E+03   -0.61902483E-10    0.39926897E-06
    6   -0.19434383E+03   -0.41211479E-11    0.69953382E-07
    7   -0.19434383E+03    0.28421709E-13    0.12708765E-07
    8   -0.19434383E+03   -0.56843419E-13    0.37105923E-08

Total Energy:                     -192.3797523894 H        -5234.9194 eV
Extrapolated to 0K:               -192.3797523894 H        -5234.9194 eV
Total Mermin free energy:         -192.3797523894 H        -5234.9194 eV
Force related energy:             -192.3797523894 H        -5234.9194 eV

Volume:                              0.999137E+04 au^3   0.148057E+04 A^3
Pressure:                            0.101045E-06 au     0.297284E+07 Pa
>> Charges saved for restart in charges.bin

total energy  -1.9237975E+02 H       energy change -8.6280332E-07 H
gradient norm  6.9677542E-04 H/a0    max. gradient  1.5703420E-04 H/a0
step length    3.5440177E-03 a0      max. step      6.5725799E-04 a0

--------------------------------------------------------------------------------

***  Geometry step: 170

 iSCC Total electronic   Diff electronic      SCC error    
    1   -0.19434383E+03    0.00000000E+00    0.13761096E-03
    2   -0.19434376E+03    0.68567277E-04    0.61520098E-04
    3   -0.19434376E+03   -0.19616266E-07    0.21447500E-04
    4   -0.19434376E+03   -0.44015849E-08    0.32958760E-05
    5   -0.19434376E+03   -0.61390892E-10    0.23602371E-06
    6   -0.19434376E+03   -0.46327386E-11    0.54769131E-07
    7   -0.19434376E+03    0.28421709E-13    0.99024042E-08

Total Energy:                     -192.3797535427 H        -5234.9194 eV
Extrapolated to 0K:               -192.3797535427 H        -5234.9194 eV
Total Mermin free energy:         -192.3797535427 H        -5234.9194 eV
Force related energy:             -192.3797535427 H        -5234.9194 eV

Volume:                              0.999066E+04 au^3   0.148046E+04 A^3
Pressure:                            0.985899E-07 au     0.290061E+07 Pa
>> Charges saved for restart in charges.bin

total energy  -1.9237975E+02 H       energy change -1.1532981E-06 H
gradient norm  7.3046210E-04 H/a0    max. gradient  1.7745665E-04 H/a0
step length    1.4636091E-02 a0      max. step      3.1790548E-03 a0

--------------------------------------------------------------------------------

***  Geometry step: 171

 iSCC Total electronic   Diff electronic      SCC error    
    1   -0.19434376E+03    0.00000000E+00    0.88833313E-04
    2   -0.19434384E+03   -0.80398742E-04    0.52401022E-04
    3   -0.19434384E+03   -0.84650935E-08    0.17178028E-04
    4   -0.19434384E+03   -0.17640502E-08    0.17809566E-05
    5   -0.19434384E+03   -0.31832315E-10    0.32787351E-06
    6   -0.19434384E+03   -0.24726887E-11    0.71991086E-07
    7   -0.19434384E+03   -0.56843419E-13    0.73771553E-08

Total Energy:                     -192.3797542337 H        -5234.9195 eV
Extrapolated to 0K:               -192.3797542337 H        -5234.9195 eV
Total Mermin free energy:         -192.3797542337 H        -5234.9195 eV
Force related energy:             -192.3797542337 H        -5234.9195 eV

Volume:                              0.999057E+04 au^3   0.148045E+04 A^3
Pressure:                            0.133623E-06 au     0.393133E+07 Pa
>> Charges saved for restart in charges.bin

total energy  -1.9237975E+02 H       energy change -6.9093107E-07 H
gradient norm  6.4590849E-04 H/a0    max. gradient  1.3038464E-04 H/a0
step length    1.9226571E-03 a0      max. step      4.1759081E-04 a0

--------------------------------------------------------------------------------

***  Geometry step: 172

 iSCC Total electronic   Diff electronic      SCC error    
    1   -0.19434384E+03    0.00000000E+00    0.15693185E-03
    2   -0.19434397E+03   -0.12643748E-03    0.73853468E-04
    3   -0.19434397E+03   -0.28622850E-07    0.25389349E-04
    4   -0.19434397E+03   -0.56524811E-08    0.32278340E-05
    5   -0.19434397E+03   -0.93962171E-10    0.56222910E-06
    6   -0.19434397E+03   -0.76170181E-11    0.11319575E-06
    7   -0.19434397E+03   -0.11368684E-12    0.14070093E-07
    8   -0.19434397E+03   -0.28421709E-13    0.40777119E-08

Total Energy:                     -192.3797553908 H        -5234.9195 eV
Extrapolated to 0K:               -192.3797553908 H        -5234.9195 eV
Total Mermin free energy:         -192.3797553908 H        -5234.9195 eV
Force related energy:             -192.3797553908 H        -5234.9195 eV

Volume:                              0.999038E+04 au^3   0.148042E+04 A^3
Pressure:                            0.185703E-06 au     0.546358E+07 Pa
>> Charges saved for restart in charges.bin

total energy  -1.9237976E+02 H       energy change -1.1570952E-06 H
gradient norm  7.1125119E-04 H/a0    max. gradient  1.9490128E-04 H/a0
step length    5.1133752E-03 a0      max. step      1.1536486E-03 a0

--------------------------------------------------------------------------------

***  Geometry step: 173

 iSCC Total electronic   Diff electronic      SCC error    
    1   -0.19434397E+03    0.00000000E+00    0.11656512E-03
    2   -0.19434399E+03   -0.20553807E-04    0.48622778E-04
    3   -0.19434399E+03   -0.12466330E-07    0.16499530E-04
    4   -0.19434399E+03   -0.23460700E-08    0.23967439E-05
    5   -0.19434399E+03   -0.42689408E-10    0.47199658E-06
    6   -0.19434399E+03   -0.33821834E-11    0.87170488E-07
    7   -0.19434399E+03    0.11368684E-12    0.78226505E-08

Total Energy:                     -192.3797562748 H        -5234.9195 eV
Extrapolated to 0K:               -192.3797562748 H        -5234.9195 eV
Total Mermin free energy:         -192.3797562748 H        -5234.9195 eV
Force related energy:             -192.3797562748 H        -5234.9195 eV

Volume:                              0.999027E+04 au^3   0.148041E+04 A^3
Pressure:                            0.193991E-06 au     0.570740E+07 Pa
>> Charges saved for restart in charges.bin

total energy  -1.9237976E+02 H       energy change -8.8400969E-07 H
gradient norm  7.9607841E-04 H/a0    max. gradient  2.0149710E-04 H/a0
step length    5.3846482E-03 a0      max. step      1.1110620E-03 a0

--------------------------------------------------------------------------------

***  Geometry step: 174

 iSCC Total electronic   Diff electronic      SCC error    
    1   -0.19434399E+03    0.00000000E+00    0.23129108E-03
    2   -0.19434375E+03    0.24426194E-03    0.10006514E-03
    3   -0.19434375E+03   -0.30263635E-07    0.23780113E-04
    4   -0.19434375E+03   -0.61376966E-08    0.38227057E-05
    5   -0.19434375E+03   -0.10965095E-09    0.95876990E-06
    6   -0.19434375E+03   -0.77307050E-11    0.16726128E-06
    7   -0.19434375E+03   -0.11368684E-12    0.17245003E-07
    8   -0.19434375E+03   -0.85265128E-13    0.62434746E-08

Total Energy:                     -192.3797578771 H        -5234.9196 eV
Extrapolated to 0K:               -192.3797578771 H        -5234.9196 eV
Total Mermin free energy:         -192.3797578771 H        -5234.9196 eV
Force related energy:             -192.3797578771 H        -5234.9196 eV

Volume:                              0.998884E+04 au^3   0.148019E+04 A^3
Pressure:                            0.166216E-06 au     0.489025E+07 Pa
>> Charges saved for restart in charges.bin

total energy  -1.9237976E+02 H       energy change -1.6023239E-06 H
gradient norm  8.2591494E-04 H/a0    max. gradient  1.8789709E-04 H/a0
step length    2.6082059E-02 a0      max. step      5.9439575E-03 a0

--------------------------------------------------------------------------------

***  Geometry step: 175

 iSCC Total electronic   Diff electronic      SCC error    
    1   -0.19434375E+03    0.00000000E+00    0.10534454E-03
    2   -0.19434369E+03    0.60238439E-04    0.53515443E-04
    3   -0.19434369E+03   -0.10087746E-07    0.15314081E-04
    4   -0.19434369E+03   -0.24057556E-08    0.19387887E-05
    5   -0.19434369E+03   -0.29785951E-10    0.40179016E-06
    6   -0.19434369E+03   -0.23874236E-11    0.87882291E-07
    7   -0.19434369E+03    0.56843419E-13    0.10981460E-07
    8   -0.19434369E+03   -0.11368684E-12    0.26624072E-08

Total Energy:                     -192.3797586517 H        -5234.9196 eV
Extrapolated to 0K:               -192.3797586517 H        -5234.9196 eV
Total Mermin free energy:         -192.3797586517 H        -5234.9196 eV
Force related energy:             -192.3797586517 H        -5234.9196 eV

Volume:                              0.998880E+04 au^3   0.148019E+04 A^3
Pressure:                            0.143805E-06 au     0.423090E+07 Pa
>> Charges saved for restart in charges.bin

total energy  -1.9237976E+02 H       energy change -7.7462894E-07 H
gradient norm  6.6986714E-04 H/a0    max. gradient  1.5740346E-04 H/a0
step length    2.3692614E-03 a0      max. step      5.3120197E-04 a0

--------------------------------------------------------------------------------

***  Geometry step: 176

 iSCC Total electronic   Diff electronic      SCC error    
    1   -0.19434369E+03    0.00000000E+00    0.17029812E-03
    2   -0.19434361E+03    0.79190260E-04    0.78300005E-04
    3   -0.19434361E+03   -0.34913853E-07    0.23383443E-04
    4   -0.19434361E+03   -0.79233189E-08    0.24833922E-05
    5   -0.19434361E+03   -0.64716232E-10    0.37104114E-06
    6   -0.19434361E+03   -0.50874860E-11    0.82747964E-07
    7   -0.19434361E+03   -0.14210855E-12    0.14798928E-07
    8   -0.19434361E+03    0.11368684E-12    0.41274686E-08

Total Energy:                     -192.3797596219 H        -5234.9196 eV
Extrapolated to 0K:               -192.3797596219 H        -5234.9196 eV
Total Mermin free energy:         -192.3797596219 H        -5234.9196 eV
Force related energy:             -192.3797596219 H        -5234.9196 eV

Volume:                              0.998866E+04 au^3   0.148017E+04 A^3
Pressure:                            0.120407E-06 au     0.354249E+07 Pa
>> Charges saved for restart in charges.bin

total energy  -1.9237976E+02 H       energy change -9.7018767E-07 H
gradient norm  5.3843883E-04 H/a0    max. gradient  9.7139223E-05 H/a0
step length    5.7491469E-03 a0      max. step      1.1893150E-03 a0

Geometry converged

--------------------------------------------------------------------------------
DFTB+ running times                          cpu [s]             wall clock [s]
--------------------------------------------------------------------------------
Pre-SCC initialisation                 +       6.10 (  0.2%)       2.84 (  0.8%)
SCC                                    +    2348.84 ( 92.2%)     308.29 ( 90.0%)
Post-SCC processing                    +     192.26 (  7.5%)      31.22 (  9.1%)
--------------------------------------------------------------------------------
Missing                                +       0.32 (  0.0%)       0.01 (  0.0%)
Total                                  =    2547.52 (100.0%)     342.36 (100.0%)
--------------------------------------------------------------------------------
