|===============================================================================
|
|  DFTB+ release 24.1
|
|  Copyright (C) 2006 - 2024  DFTB+ developers group
|
|===============================================================================
|
|  When publishing results obtained with DFTB+, please cite the following
|  reference:
|
|  * DFTB+, a software package for efficient approximate density functional
|    theory based atomistic simulations, J. Chem. Phys. 152, 124101 (2020).
|    [doi: 10.1063/1.5143190]
|
|  You should also cite additional publications crediting the parametrization
|  data you use. Please consult the documentation of the SK-files for the
|  references.
|
|===============================================================================

Reading input file 'dftb_in.hsd'
Parser version: 14

--------------------------------------------------------------------------------
Reading SK-files:
./SKFiles/Ge-Ge.skf
./SKFiles/Ge-Si.skf
./SKFiles/Ge-O.skf
./SKFiles/Si-Si.skf
./SKFiles/Si-O.skf
./SKFiles/O-O.skf
Done.


Processed input in HSD format written to 'dftb_pin.hsd'

Starting initialization...
--------------------------------------------------------------------------------
WARNING!
-> Dipole printed for extended system : value printed is not well defined
MPI processes:               1
OpenMP threads:              8
BLACS orbital grid size:     1 x 1
BLACS atom grid size:        1 x 1
Chosen random seed:          152824089
Current stacksize:           unlimited
Mode:                        Static calculation
Self consistent charges:     Yes
SCC-tolerance:                 0.100000E-07
Max. scc iterations:                    500
Shell resolved Hubbard:      No
Spin polarisation:           No
Nr. of up electrons:           192.000000
Nr. of down electrons:         192.000000
Periodic boundaries:         Yes
Electronic solver:           Relatively robust
Mixer:                       Broyden mixer
Mixing parameter:                  0.200000
Maximal SCC-cycles:                     500
Nr. of chrg. vec. in memory:            500
Electronic temperature:              0.100000E-07 H      0.272114E-06 eV
Initial charges:             Set automatically (system chrg:   0.000E+00)
Included shells:            Ge:  s, p, d
                            Si:  s, p, d
                             O:  s, p
K-points and weights:           1:  0.500000  0.500000  0.500000     1.000000

K-points in absolute space:     1:  0.025319  0.017606  0.037774

Extra options:
                             Mulliken analysis
Force type                   original

--------------------------------------------------------------------------------

***  Geometry step: 0

 iSCC Total electronic   Diff electronic      SCC error    
    1    0.00000000E+00    0.00000000E+00    0.14596848E+01
    2   -0.19479960E+03   -0.19479960E+03    0.99396136E+00
    3   -0.19516647E+03   -0.36687503E+00    0.61923589E-01
    4   -0.19548232E+03   -0.31585010E+00    0.28607648E-01
    5   -0.19548445E+03   -0.21283212E-02    0.80231997E-02
    6   -0.19548461E+03   -0.15568067E-03    0.17529337E-02
    7   -0.19548461E+03   -0.49593866E-05    0.46534581E-03
    8   -0.19548461E+03   -0.11994039E-05    0.58156481E-04
    9   -0.19548461E+03   -0.76125332E-07    0.32254450E-04
   10   -0.19548461E+03   -0.21401547E-10    0.13230030E-05
   11   -0.19548461E+03   -0.26707880E-09    0.35558402E-06
   12   -0.19548461E+03   -0.36948222E-11    0.14793706E-06
   13   -0.19548461E+03   -0.28421709E-13    0.18847865E-07
   14   -0.19548461E+03    0.28421709E-13    0.15750850E-08

Total Energy:                     -191.8767943290 H        -5221.2332 eV
Extrapolated to 0K:               -191.8767943290 H        -5221.2332 eV
Total Mermin free energy:         -191.8767943290 H        -5221.2332 eV
Force related energy:             -191.8767943290 H        -5221.2332 eV

Volume:                              0.913789E+04 au^3   0.135410E+04 A^3
Pressure:                            0.714702E-03 au     0.210273E+11 Pa
>> Charges saved for restart in charges.bin

total energy  -1.9187679E+02 H       energy change -1.9187679E+02 H
gradient norm  9.2878746E-01 H/a0    max. gradient  4.8878876E-01 H/a0
step length    0.0000000E+00 a0      max. step      0.0000000E+00 a0

--------------------------------------------------------------------------------

***  Geometry step: 1

 iSCC Total electronic   Diff electronic      SCC error    
    1   -0.19548461E+03    0.00000000E+00    0.12773864E+00
    2   -0.19510712E+03    0.37749545E+00    0.74633454E-01
    3   -0.19511549E+03   -0.83703964E-02    0.17765328E-01
    4   -0.19511739E+03   -0.19045389E-02    0.18132917E-02
    5   -0.19511742E+03   -0.27171331E-04    0.74575630E-03
    6   -0.19511742E+03   -0.90259599E-06    0.15386241E-03
    7   -0.19511742E+03   -0.69644074E-07    0.17170954E-04
    8   -0.19511742E+03   -0.62611036E-08    0.33608420E-05
    9   -0.19511742E+03   -0.26096814E-09    0.10322607E-05
   10   -0.19511742E+03   -0.25863756E-11    0.22893630E-06
   11   -0.19511742E+03   -0.19895197E-12    0.43965094E-07
   12   -0.19511742E+03   -0.85265128E-13    0.72325683E-08

Total Energy:                     -192.0270794435 H        -5225.3227 eV
Extrapolated to 0K:               -192.0270794435 H        -5225.3227 eV
Total Mermin free energy:         -192.0270794435 H        -5225.3227 eV
Force related energy:             -192.0270794435 H        -5225.3227 eV

Volume:                              0.945350E+04 au^3   0.140086E+04 A^3
Pressure:                            0.461173E-03 au     0.135682E+11 Pa
>> Charges saved for restart in charges.bin

total energy  -1.9202708E+02 H       energy change -1.5028511E-01 H
gradient norm  6.0771993E-01 H/a0    max. gradient  2.4710121E-01 H/a0
step length    5.9735995E-01 a0      max. step      3.1436991E-01 a0

--------------------------------------------------------------------------------

***  Geometry step: 2

 iSCC Total electronic   Diff electronic      SCC error    
    1   -0.19511742E+03    0.00000000E+00    0.52296784E-01
    2   -0.19504779E+03    0.69629577E-01    0.25568388E-01
    3   -0.19505091E+03   -0.31220326E-02    0.60401054E-02
    4   -0.19505166E+03   -0.74850284E-03    0.89261698E-03
    5   -0.19505167E+03   -0.57628538E-05    0.19455181E-03
    6   -0.19505167E+03   -0.22489769E-06    0.72926006E-04
    7   -0.19505167E+03   -0.15716864E-07    0.11560989E-04
    8   -0.19505167E+03   -0.16102035E-08    0.13187626E-05
    9   -0.19505167E+03   -0.71509021E-10    0.46864532E-06
   10   -0.19505167E+03   -0.93791641E-12    0.17547591E-06
   11   -0.19505167E+03    0.56843419E-13    0.29471316E-07
   12   -0.19505167E+03   -0.14210855E-12    0.45433763E-08

Total Energy:                     -192.1763845792 H        -5229.3855 eV
Extrapolated to 0K:               -192.1763845792 H        -5229.3855 eV
Total Mermin free energy:         -192.1763845792 H        -5229.3855 eV
Force related energy:             -192.1763845792 H        -5229.3855 eV

Volume:                              0.943937E+04 au^3   0.139877E+04 A^3
Pressure:                            0.386402E-03 au     0.113683E+11 Pa
>> Charges saved for restart in charges.bin

total energy  -1.9217638E+02 H       energy change -1.4930514E-01 H
gradient norm  3.1906465E-01 H/a0    max. gradient  6.9758219E-02 H/a0
step length    3.8527962E-01 a0      max. step      6.6596695E-02 a0

--------------------------------------------------------------------------------

***  Geometry step: 3

 iSCC Total electronic   Diff electronic      SCC error    
    1   -0.19505167E+03    0.00000000E+00    0.54036352E-01
    2   -0.19490363E+03    0.14803243E+00    0.31079856E-01
    3   -0.19490637E+03   -0.27340437E-02    0.71966472E-02
    4   -0.19490706E+03   -0.69122780E-03    0.88150661E-03
    5   -0.19490707E+03   -0.70200191E-05    0.23214330E-03
    6   -0.19490707E+03   -0.50150385E-06    0.91338744E-04
    7   -0.19490707E+03   -0.14272814E-07    0.14477499E-04
    8   -0.19490707E+03   -0.20560549E-08    0.15691745E-05
    9   -0.19490707E+03   -0.81513463E-10    0.38686023E-06
   10   -0.19490707E+03   -0.12221335E-11    0.89679434E-07
   11   -0.19490707E+03   -0.56843419E-13    0.23614737E-07
   12   -0.19490707E+03   -0.28421709E-13    0.48467590E-08

Total Energy:                     -192.2592386870 H        -5231.6401 eV
Extrapolated to 0K:               -192.2592386870 H        -5231.6401 eV
Total Mermin free energy:         -192.2592386870 H        -5231.6401 eV
Force related energy:             -192.2592386870 H        -5231.6401 eV

Volume:                              0.947321E+04 au^3   0.140379E+04 A^3
Pressure:                            0.301886E-03 au     0.888179E+10 Pa
>> Charges saved for restart in charges.bin

total energy  -1.9225924E+02 H       energy change -8.2854108E-02 H
gradient norm  2.3884934E-01 H/a0    max. gradient  1.2160408E-01 H/a0
step length    4.8594706E-01 a0      max. step      9.5267859E-02 a0

--------------------------------------------------------------------------------

***  Geometry step: 4

 iSCC Total electronic   Diff electronic      SCC error    
    1   -0.19490707E+03    0.00000000E+00    0.41516859E-01
    2   -0.19469793E+03    0.20913363E+00    0.24544668E-01
    3   -0.19469865E+03   -0.71411678E-03    0.49062781E-02
    4   -0.19469883E+03   -0.18642240E-03    0.61404309E-03
    5   -0.19469884E+03   -0.36712558E-05    0.15267429E-03
    6   -0.19469884E+03   -0.18764851E-06    0.78621382E-04
    7   -0.19469884E+03   -0.37468908E-08    0.72638542E-05
    8   -0.19469884E+03   -0.72466833E-09    0.12780836E-05
    9   -0.19469884E+03   -0.43428372E-10    0.30493878E-06
   10   -0.19469884E+03   -0.10800250E-11    0.50481030E-07
   11   -0.19469884E+03    0.00000000E+00    0.12617474E-07
   12   -0.19469884E+03   -0.28421709E-13    0.40666595E-08

Total Energy:                     -192.3001559546 H        -5232.7535 eV
Extrapolated to 0K:               -192.3001559546 H        -5232.7535 eV
Total Mermin free energy:         -192.3001559546 H        -5232.7535 eV
Force related energy:             -192.3001559546 H        -5232.7535 eV

Volume:                              0.958504E+04 au^3   0.142036E+04 A^3
Pressure:                            0.200941E-03 au     0.591188E+10 Pa
>> Charges saved for restart in charges.bin

total energy  -1.9230016E+02 H       energy change -4.0917268E-02 H
gradient norm  1.8873918E-01 H/a0    max. gradient  8.7688273E-02 H/a0
step length    3.8118783E-01 a0      max. step      9.3851867E-02 a0

--------------------------------------------------------------------------------

***  Geometry step: 5

 iSCC Total electronic   Diff electronic      SCC error    
    1   -0.19469884E+03    0.00000000E+00    0.36851489E-01
    2   -0.19449102E+03    0.20781668E+00    0.21426817E-01
    3   -0.19449146E+03   -0.43371087E-03    0.29265391E-02
    4   -0.19449157E+03   -0.11689293E-03    0.40827109E-03
    5   -0.19449158E+03   -0.31721337E-05    0.16491487E-03
    6   -0.19449158E+03   -0.14171371E-06    0.72206525E-04
    7   -0.19449158E+03   -0.35046241E-08    0.64905639E-05
    8   -0.19449158E+03   -0.48370907E-09    0.14503680E-05
    9   -0.19449158E+03   -0.38994585E-10    0.32486621E-06
   10   -0.19449158E+03   -0.54001248E-12    0.50542454E-07
   11   -0.19449158E+03   -0.85265128E-13    0.15601807E-07
   12   -0.19449158E+03   -0.56843419E-13    0.37223185E-08

Total Energy:                     -192.3280559131 H        -5233.5127 eV
Extrapolated to 0K:               -192.3280559131 H        -5233.5127 eV
Total Mermin free energy:         -192.3280559131 H        -5233.5127 eV
Force related energy:             -192.3280559131 H        -5233.5127 eV

Volume:                              0.969014E+04 au^3   0.143593E+04 A^3
Pressure:                            0.107027E-03 au     0.314884E+10 Pa
>> Charges saved for restart in charges.bin

total energy  -1.9232806E+02 H       energy change -2.7899958E-02 H
gradient norm  1.0811734E-01 H/a0    max. gradient  2.4024116E-02 H/a0
step length    3.9540294E-01 a0      max. step      8.0011132E-02 a0

--------------------------------------------------------------------------------

***  Geometry step: 6

 iSCC Total electronic   Diff electronic      SCC error    
    1   -0.19449158E+03    0.00000000E+00    0.17557443E-01
    2   -0.19439178E+03    0.99800092E-01    0.80354841E-02
    3   -0.19439203E+03   -0.25666314E-03    0.21451167E-02
    4   -0.19439209E+03   -0.61665754E-04    0.34991270E-03
    5   -0.19439209E+03   -0.11368737E-05    0.88907352E-04
    6   -0.19439209E+03   -0.11766556E-06    0.39901156E-04
    7   -0.19439209E+03   -0.24865869E-08    0.75226088E-05
    8   -0.19439209E+03   -0.14338752E-09    0.95770422E-06
    9   -0.19439209E+03   -0.13898216E-10    0.31371581E-06
   10   -0.19439209E+03   -0.51159077E-12    0.40753213E-07
   11   -0.19439209E+03   -0.56843419E-13    0.95515302E-08

Total Energy:                     -192.3410932391 H        -5233.8674 eV
Extrapolated to 0K:               -192.3410932391 H        -5233.8674 eV
Total Mermin free energy:         -192.3410932391 H        -5233.8674 eV
Force related energy:             -192.3410932391 H        -5233.8674 eV

Volume:                              0.973155E+04 au^3   0.144207E+04 A^3
Pressure:                            0.609571E-04 au     0.179342E+10 Pa
>> Charges saved for restart in charges.bin

total energy  -1.9234109E+02 H       energy change -1.3037326E-02 H
gradient norm  8.2721910E-02 H/a0    max. gradient  2.5644303E-02 H/a0
step length    2.7244354E-01 a0      max. step      5.2922239E-02 a0

--------------------------------------------------------------------------------

***  Geometry step: 7

 iSCC Total electronic   Diff electronic      SCC error    
    1   -0.19439209E+03    0.00000000E+00    0.21235601E-01
    2   -0.19433921E+03    0.52882235E-01    0.12155979E-01
    3   -0.19433950E+03   -0.28991492E-03    0.29798356E-02
    4   -0.19433957E+03   -0.63399053E-04    0.31130135E-03
    5   -0.19433957E+03   -0.83887571E-06    0.10123149E-03
    6   -0.19433957E+03   -0.66018572E-07    0.43463926E-04
    7   -0.19433957E+03   -0.12979058E-08    0.78411301E-05
    8   -0.19433957E+03   -0.14014745E-09    0.88435878E-06
    9   -0.19433957E+03   -0.12391865E-10    0.20326704E-06
   10   -0.19433957E+03   -0.28421709E-12    0.29665816E-07
   11   -0.19433957E+03    0.85265128E-13    0.39750772E-08

Total Energy:                     -192.3501922057 H        -5234.1150 eV
Extrapolated to 0K:               -192.3501922057 H        -5234.1150 eV
Total Mermin free energy:         -192.3501922057 H        -5234.1150 eV
Force related energy:             -192.3501922057 H        -5234.1150 eV

Volume:                              0.975586E+04 au^3   0.144567E+04 A^3
Pressure:                            0.366697E-04 au     0.107886E+10 Pa
>> Charges saved for restart in charges.bin

total energy  -1.9235019E+02 H       energy change -9.0989666E-03 H
gradient norm  7.2221389E-02 H/a0    max. gradient  3.1264302E-02 H/a0
step length    2.4442976E-01 a0      max. step      5.1209206E-02 a0

--------------------------------------------------------------------------------

***  Geometry step: 8

 iSCC Total electronic   Diff electronic      SCC error    
    1   -0.19433957E+03    0.00000000E+00    0.28077804E-01
    2   -0.19434215E+03   -0.25801987E-02    0.16386947E-01
    3   -0.19434243E+03   -0.27942709E-03    0.35682011E-02
    4   -0.19434249E+03   -0.65109827E-04    0.36068981E-03
    5   -0.19434249E+03   -0.15470566E-05    0.92942583E-04
    6   -0.19434249E+03   -0.11410253E-06    0.33761928E-04
    7   -0.19434249E+03   -0.24039650E-08    0.79257698E-05
    8   -0.19434249E+03   -0.13002932E-09    0.71322462E-06
    9   -0.19434249E+03   -0.18104629E-10    0.17090178E-06
   10   -0.19434249E+03   -0.45474735E-12    0.28002316E-07
   11   -0.19434249E+03    0.28421709E-13    0.89772798E-08

Total Energy:                     -192.3557014238 H        -5234.2650 eV
Extrapolated to 0K:               -192.3557014238 H        -5234.2650 eV
Total Mermin free energy:         -192.3557014238 H        -5234.2650 eV
Force related energy:             -192.3557014238 H        -5234.2650 eV

Volume:                              0.975036E+04 au^3   0.144485E+04 A^3
Pressure:                            0.353198E-04 au     0.103914E+10 Pa
>> Charges saved for restart in charges.bin

total energy  -1.9235570E+02 H       energy change -5.5092181E-03 H
gradient norm  5.9819946E-02 H/a0    max. gradient  2.1574942E-02 H/a0
step length    2.0843175E-01 a0      max. step      3.9367369E-02 a0

--------------------------------------------------------------------------------

***  Geometry step: 9

 iSCC Total electronic   Diff electronic      SCC error    
    1   -0.19434249E+03    0.00000000E+00    0.11983657E-01
    2   -0.19435428E+03   -0.11786632E-01    0.68344057E-02
    3   -0.19435433E+03   -0.55002910E-04    0.93195665E-03
    4   -0.19435435E+03   -0.14625648E-04    0.16174609E-03
    5   -0.19435435E+03   -0.52823464E-06    0.44670530E-04
    6   -0.19435435E+03   -0.19787109E-07    0.12858767E-04
    7   -0.19435435E+03   -0.48527227E-09    0.21786745E-05
    8   -0.19435435E+03   -0.46838977E-10    0.26001160E-06
    9   -0.19435435E+03   -0.29274361E-11    0.58197101E-07
   10   -0.19435435E+03   -0.11368684E-12    0.11826916E-07
   11   -0.19435435E+03   -0.11368684E-12    0.20021682E-08

Total Energy:                     -192.3588320587 H        -5234.3501 eV
Extrapolated to 0K:               -192.3588320587 H        -5234.3501 eV
Total Mermin free energy:         -192.3588320587 H        -5234.3501 eV
Force related energy:             -192.3588320587 H        -5234.3501 eV

Volume:                              0.974789E+04 au^3   0.144449E+04 A^3
Pressure:                            0.380517E-04 au     0.111952E+10 Pa
>> Charges saved for restart in charges.bin

total energy  -1.9235883E+02 H       energy change -3.1306350E-03 H
gradient norm  4.3370214E-02 H/a0    max. gradient  1.0328674E-02 H/a0
step length    1.2180911E-01 a0      max. step      2.0725607E-02 a0

--------------------------------------------------------------------------------

***  Geometry step: 10

 iSCC Total electronic   Diff electronic      SCC error    
    1   -0.19435435E+03    0.00000000E+00    0.15693507E-01
    2   -0.19437306E+03   -0.18710194E-01    0.63144931E-02
    3   -0.19437314E+03   -0.82972408E-04    0.14590000E-02
    4   -0.19437316E+03   -0.18900574E-04    0.24195179E-03
    5   -0.19437316E+03   -0.71977311E-06    0.55514450E-04
    6   -0.19437316E+03   -0.32891819E-07    0.21053392E-04
    7   -0.19437316E+03   -0.51107918E-09    0.31776268E-05
    8   -0.19437316E+03   -0.66563643E-10    0.41215186E-06
    9   -0.19437316E+03   -0.30695446E-11    0.97553459E-07
   10   -0.19437316E+03   -0.85265128E-13    0.18553873E-07
   11   -0.19437316E+03   -0.28421709E-13    0.32199328E-08

Total Energy:                     -192.3617541412 H        -5234.4297 eV
Extrapolated to 0K:               -192.3617541412 H        -5234.4297 eV
Total Mermin free energy:         -192.3617541412 H        -5234.4297 eV
Force related energy:             -192.3617541412 H        -5234.4297 eV

Volume:                              0.974062E+04 au^3   0.144341E+04 A^3
Pressure:                            0.429771E-04 au     0.126443E+10 Pa
>> Charges saved for restart in charges.bin

total energy  -1.9236175E+02 H       energy change -2.9220824E-03 H
gradient norm  3.9648740E-02 H/a0    max. gradient  1.5118524E-02 H/a0
step length    1.4905625E-01 a0      max. step      2.6008628E-02 a0

--------------------------------------------------------------------------------

***  Geometry step: 11

 iSCC Total electronic   Diff electronic      SCC error    
    1   -0.19437316E+03    0.00000000E+00    0.92588087E-02
    2   -0.19437116E+03    0.19993078E-02    0.42008990E-02
    3   -0.19437122E+03   -0.55231722E-04    0.11770846E-02
    4   -0.19437123E+03   -0.13839508E-04    0.16606334E-03
    5   -0.19437123E+03   -0.37251672E-06    0.26246472E-04
    6   -0.19437123E+03   -0.23894074E-07    0.10883178E-04
    7   -0.19437123E+03   -0.34094683E-09    0.30696216E-05
    8   -0.19437123E+03   -0.27341684E-10    0.31537708E-06
    9   -0.19437123E+03   -0.15916157E-11    0.89472596E-07
   10   -0.19437123E+03   -0.11368684E-12    0.15909787E-07
   11   -0.19437123E+03    0.11368684E-12    0.17487811E-08

Total Energy:                     -192.3640150508 H        -5234.4912 eV
Extrapolated to 0K:               -192.3640150508 H        -5234.4912 eV
Total Mermin free energy:         -192.3640150508 H        -5234.4912 eV
Force related energy:             -192.3640150508 H        -5234.4912 eV

Volume:                              0.975137E+04 au^3   0.144500E+04 A^3
Pressure:                            0.396027E-04 au     0.116515E+10 Pa
>> Charges saved for restart in charges.bin

total energy  -1.9236402E+02 H       energy change -2.2609097E-03 H
gradient norm  4.0152148E-02 H/a0    max. gradient  1.3237717E-02 H/a0
step length    1.3893331E-01 a0      max. step      2.8196088E-02 a0

--------------------------------------------------------------------------------

***  Geometry step: 12

 iSCC Total electronic   Diff electronic      SCC error    
    1   -0.19437123E+03    0.00000000E+00    0.10199267E-01
    2   -0.19435812E+03    0.13111179E-01    0.58024084E-02
    3   -0.19435816E+03   -0.39003297E-04    0.10301072E-02
    4   -0.19435817E+03   -0.95844064E-05    0.18657643E-03
    5   -0.19435817E+03   -0.41412048E-06    0.60899751E-04
    6   -0.19435817E+03   -0.17224494E-07    0.19282306E-04
    7   -0.19435817E+03   -0.20790480E-09    0.18616639E-05
    8   -0.19435817E+03   -0.24044766E-10    0.28738292E-06
    9   -0.19435817E+03   -0.21884716E-11    0.71914287E-07
   10   -0.19435817E+03   -0.14210855E-12    0.75206108E-08

Total Energy:                     -192.3663889158 H        -5234.5558 eV
Extrapolated to 0K:               -192.3663889158 H        -5234.5558 eV
Total Mermin free energy:         -192.3663889158 H        -5234.5558 eV
Force related energy:             -192.3663889158 H        -5234.5558 eV

Volume:                              0.977048E+04 au^3   0.144784E+04 A^3
Pressure:                            0.316101E-04 au     0.930002E+09 Pa
>> Charges saved for restart in charges.bin

total energy  -1.9236639E+02 H       energy change -2.3738650E-03 H
gradient norm  3.5376278E-02 H/a0    max. gradient  1.2275669E-02 H/a0
step length    1.7461936E-01 a0      max. step      4.0587523E-02 a0

--------------------------------------------------------------------------------

***  Geometry step: 13

 iSCC Total electronic   Diff electronic      SCC error    
    1   -0.19435817E+03    0.00000000E+00    0.68263314E-02
    2   -0.19433994E+03    0.18234883E-01    0.39970380E-02
    3   -0.19433996E+03   -0.21316080E-04    0.76959572E-03
    4   -0.19433996E+03   -0.49729256E-05    0.10358804E-03
    5   -0.19433996E+03   -0.16265454E-06    0.42267435E-04
    6   -0.19433996E+03   -0.71366912E-08    0.12525864E-04
    7   -0.19433996E+03   -0.13903900E-09    0.14723122E-05
    8   -0.19433996E+03   -0.14665602E-10    0.21800876E-06
    9   -0.19433996E+03   -0.13642421E-11    0.58885366E-07
   10   -0.19433996E+03    0.85265128E-13    0.69262933E-08

Total Energy:                     -192.3679413492 H        -5234.5980 eV
Extrapolated to 0K:               -192.3679413492 H        -5234.5980 eV
Total Mermin free energy:         -192.3679413492 H        -5234.5980 eV
Force related energy:             -192.3679413492 H        -5234.5980 eV

Volume:                              0.979486E+04 au^3   0.145145E+04 A^3
Pressure:                            0.214884E-04 au     0.632211E+09 Pa
>> Charges saved for restart in charges.bin

total energy  -1.9236794E+02 H       energy change -1.5524334E-03 H
gradient norm  2.8032171E-02 H/a0    max. gradient  8.2768705E-03 H/a0
step length    1.3823484E-01 a0      max. step      3.0005116E-02 a0

--------------------------------------------------------------------------------

***  Geometry step: 14

 iSCC Total electronic   Diff electronic      SCC error    
    1   -0.19433996E+03    0.00000000E+00    0.56636649E-02
    2   -0.19433255E+03    0.74172908E-02    0.21853592E-02
    3   -0.19433257E+03   -0.26917637E-04    0.63950289E-03
    4   -0.19433258E+03   -0.56070710E-05    0.11219945E-03
    5   -0.19433258E+03   -0.78566870E-07    0.14348327E-04
    6   -0.19433258E+03   -0.71825923E-08    0.40427583E-05
    7   -0.19433258E+03   -0.19383606E-09    0.11820311E-05
    8   -0.19433258E+03   -0.95212727E-11    0.22399826E-06
    9   -0.19433258E+03   -0.56843419E-12    0.37608526E-07
   10   -0.19433258E+03    0.56843419E-13    0.87528438E-08

Total Energy:                     -192.3691243242 H        -5234.6302 eV
Extrapolated to 0K:               -192.3691243242 H        -5234.6302 eV
Total Mermin free energy:         -192.3691243242 H        -5234.6302 eV
Force related energy:             -192.3691243242 H        -5234.6302 eV

Volume:                              0.981286E+04 au^3   0.145412E+04 A^3
Pressure:                            0.165530E-04 au     0.487005E+09 Pa
>> Charges saved for restart in charges.bin

total energy  -1.9236912E+02 H       energy change -1.1829751E-03 H
gradient norm  2.4927144E-02 H/a0    max. gradient  6.2342262E-03 H/a0
step length    1.1140088E-01 a0      max. step      2.3433307E-02 a0

--------------------------------------------------------------------------------

***  Geometry step: 15

 iSCC Total electronic   Diff electronic      SCC error    
    1   -0.19433258E+03    0.00000000E+00    0.53379521E-02
    2   -0.19433158E+03    0.99662034E-03    0.24462336E-02
    3   -0.19433161E+03   -0.30778398E-04    0.54948030E-03
    4   -0.19433162E+03   -0.67191762E-05    0.99724437E-04
    5   -0.19433162E+03   -0.85414882E-07    0.22856065E-04
    6   -0.19433162E+03   -0.78777305E-08    0.77423628E-05
    7   -0.19433162E+03   -0.23618441E-09    0.20666344E-05
    8   -0.19433162E+03   -0.84128260E-11    0.24124927E-06
    9   -0.19433162E+03   -0.11937118E-11    0.61666889E-07
   10   -0.19433162E+03   -0.28421709E-13    0.60531811E-08

Total Energy:                     -192.3701922329 H        -5234.6593 eV
Extrapolated to 0K:               -192.3701922329 H        -5234.6593 eV
Total Mermin free energy:         -192.3701922329 H        -5234.6593 eV
Force related energy:             -192.3701922329 H        -5234.6593 eV

Volume:                              0.982995E+04 au^3   0.145665E+04 A^3
Pressure:                            0.145082E-04 au     0.426847E+09 Pa
>> Charges saved for restart in charges.bin

total energy  -1.9237019E+02 H       energy change -1.0679087E-03 H
gradient norm  2.4890628E-02 H/a0    max. gradient  8.3738669E-03 H/a0
step length    1.1278848E-01 a0      max. step      2.3142507E-02 a0

--------------------------------------------------------------------------------

***  Geometry step: 16

 iSCC Total electronic   Diff electronic      SCC error    
    1   -0.19433162E+03    0.00000000E+00    0.61201256E-02
    2   -0.19433505E+03   -0.34272225E-02    0.33699774E-02
    3   -0.19433507E+03   -0.21667731E-04    0.66973275E-03
    4   -0.19433507E+03   -0.46397460E-05    0.11017627E-03
    5   -0.19433507E+03   -0.89086853E-07    0.29976806E-04
    6   -0.19433507E+03   -0.80543998E-08    0.71987359E-05
    7   -0.19433507E+03   -0.19781510E-09    0.16617615E-05
    8   -0.19433507E+03   -0.63380412E-11    0.25740772E-06
    9   -0.19433507E+03   -0.13926638E-11    0.62936257E-07
   10   -0.19433507E+03   -0.56843419E-13    0.54146723E-08

Total Energy:                     -192.3710858405 H        -5234.6836 eV
Extrapolated to 0K:               -192.3710858405 H        -5234.6836 eV
Total Mermin free energy:         -192.3710858405 H        -5234.6836 eV
Force related energy:             -192.3710858405 H        -5234.6836 eV

Volume:                              0.984510E+04 au^3   0.145889E+04 A^3
Pressure:                            0.147701E-04 au     0.434550E+09 Pa
>> Charges saved for restart in charges.bin

total energy  -1.9237109E+02 H       energy change -8.9360755E-04 H
gradient norm  2.2318025E-02 H/a0    max. gradient  5.8692185E-03 H/a0
step length    1.1205649E-01 a0      max. step      2.2610120E-02 a0

--------------------------------------------------------------------------------

***  Geometry step: 17

 iSCC Total electronic   Diff electronic      SCC error    
    1   -0.19433507E+03    0.00000000E+00    0.52554290E-02
    2   -0.19433766E+03   -0.25840972E-02    0.29909519E-02
    3   -0.19433767E+03   -0.11673215E-04    0.63720364E-03
    4   -0.19433767E+03   -0.24741747E-05    0.10128013E-03
    5   -0.19433767E+03   -0.61601042E-07    0.26512781E-04
    6   -0.19433767E+03   -0.51707900E-08    0.56234714E-05
    7   -0.19433767E+03   -0.11530688E-09    0.13066026E-05
    8   -0.19433767E+03   -0.52580162E-11    0.18247753E-06
    9   -0.19433767E+03   -0.96633812E-12    0.48021526E-07
   10   -0.19433767E+03    0.56843419E-13    0.64036074E-08

Total Energy:                     -192.3718073750 H        -5234.7032 eV
Extrapolated to 0K:               -192.3718073750 H        -5234.7032 eV
Total Mermin free energy:         -192.3718073750 H        -5234.7032 eV
Force related energy:             -192.3718073750 H        -5234.7032 eV

Volume:                              0.985911E+04 au^3   0.146097E+04 A^3
Pressure:                            0.151841E-04 au     0.446732E+09 Pa
>> Charges saved for restart in charges.bin

total energy  -1.9237181E+02 H       energy change -7.2153457E-04 H
gradient norm  1.9786430E-02 H/a0    max. gradient  4.1116455E-03 H/a0
step length    1.0395866E-01 a0      max. step      2.0098822E-02 a0

--------------------------------------------------------------------------------

***  Geometry step: 18

 iSCC Total electronic   Diff electronic      SCC error    
    1   -0.19433767E+03    0.00000000E+00    0.36111975E-02
    2   -0.19433713E+03    0.53962066E-03    0.15187332E-02
    3   -0.19433714E+03   -0.10105827E-04    0.44382899E-03
    4   -0.19433714E+03   -0.21653701E-05    0.75770550E-04
    5   -0.19433714E+03   -0.36980509E-07    0.20792413E-04
    6   -0.19433714E+03   -0.40979558E-08    0.58563142E-05
    7   -0.19433714E+03   -0.75544904E-10    0.15222672E-05
    8   -0.19433714E+03   -0.23021585E-11    0.16931866E-06
    9   -0.19433714E+03   -0.45474735E-12    0.40164355E-07
   10   -0.19433714E+03    0.28421709E-13    0.48452771E-08

Total Energy:                     -192.3724866769 H        -5234.7217 eV
Extrapolated to 0K:               -192.3724866769 H        -5234.7217 eV
Total Mermin free energy:         -192.3724866769 H        -5234.7217 eV
Force related energy:             -192.3724866769 H        -5234.7217 eV

Volume:                              0.987383E+04 au^3   0.146315E+04 A^3
Pressure:                            0.140419E-04 au     0.413126E+09 Pa
>> Charges saved for restart in charges.bin

total energy  -1.9237249E+02 H       energy change -6.7930191E-04 H
gradient norm  1.9954616E-02 H/a0    max. gradient  4.2299357E-03 H/a0
step length    1.0057857E-01 a0      max. step      1.8167842E-02 a0

--------------------------------------------------------------------------------

***  Geometry step: 19

 iSCC Total electronic   Diff electronic      SCC error    
    1   -0.19433714E+03    0.00000000E+00    0.33470012E-02
    2   -0.19433430E+03    0.28388542E-02    0.16940545E-02
    3   -0.19433432E+03   -0.14131375E-04    0.52023654E-03
    4   -0.19433432E+03   -0.30805239E-05    0.82210585E-04
    5   -0.19433432E+03   -0.52145225E-07    0.90257538E-05
    6   -0.19433432E+03   -0.62798051E-08    0.32706061E-05
    7   -0.19433432E+03   -0.98054898E-10    0.11499135E-05
    8   -0.19433432E+03   -0.29842795E-11    0.16566097E-06
    9   -0.19433432E+03   -0.34106051E-12    0.41321577E-07
   10   -0.19433432E+03    0.00000000E+00    0.60058718E-08

Total Energy:                     -192.3732172429 H        -5234.7416 eV
Extrapolated to 0K:               -192.3732172429 H        -5234.7416 eV
Total Mermin free energy:         -192.3732172429 H        -5234.7416 eV
Force related energy:             -192.3732172429 H        -5234.7416 eV

Volume:                              0.989227E+04 au^3   0.146588E+04 A^3
Pressure:                            0.115439E-04 au     0.339632E+09 Pa
>> Charges saved for restart in charges.bin

total energy  -1.9237322E+02 H       energy change -7.3056600E-04 H
gradient norm  2.0806900E-02 H/a0    max. gradient  5.6486796E-03 H/a0
step length    1.2082341E-01 a0      max. step      2.0999367E-02 a0

--------------------------------------------------------------------------------

***  Geometry step: 20

 iSCC Total electronic   Diff electronic      SCC error    
    1   -0.19433432E+03    0.00000000E+00    0.30907662E-02
    2   -0.19433030E+03    0.40207813E-02    0.16642093E-02
    3   -0.19433031E+03   -0.81673080E-05    0.53042125E-03
    4   -0.19433031E+03   -0.18760771E-05    0.74242064E-04
    5   -0.19433031E+03   -0.57732791E-07    0.17240651E-04
    6   -0.19433031E+03   -0.45264983E-08    0.39045707E-05
    7   -0.19433031E+03   -0.66108896E-10    0.10361315E-05
    8   -0.19433031E+03   -0.20747848E-11    0.18152575E-06
    9   -0.19433031E+03   -0.51159077E-12    0.49470626E-07
   10   -0.19433031E+03    0.28421709E-13    0.49925424E-08

Total Energy:                     -192.3738028873 H        -5234.7575 eV
Extrapolated to 0K:               -192.3738028873 H        -5234.7575 eV
Total Mermin free energy:         -192.3738028873 H        -5234.7575 eV
Force related energy:             -192.3738028873 H        -5234.7575 eV

Volume:                              0.990887E+04 au^3   0.146834E+04 A^3
Pressure:                            0.854039E-05 au     0.251267E+09 Pa
>> Charges saved for restart in charges.bin

total energy  -1.9237380E+02 H       energy change -5.8564435E-04 H
gradient norm  1.8258832E-02 H/a0    max. gradient  4.2010776E-03 H/a0
step length    1.0713136E-01 a0      max. step      1.9540718E-02 a0

--------------------------------------------------------------------------------

***  Geometry step: 21

 iSCC Total electronic   Diff electronic      SCC error    
    1   -0.19433031E+03    0.00000000E+00    0.29788216E-02
    2   -0.19432680E+03    0.35088191E-02    0.16028491E-02
    3   -0.19432681E+03   -0.59956321E-05    0.47928329E-03
    4   -0.19432681E+03   -0.14446586E-05    0.56899797E-04
    5   -0.19432681E+03   -0.48528221E-07    0.17153845E-04
    6   -0.19432681E+03   -0.31819525E-08    0.31161804E-05
    7   -0.19432681E+03   -0.59998229E-10    0.82034810E-06
    8   -0.19432681E+03   -0.18189894E-11    0.18727316E-06
    9   -0.19432681E+03   -0.42632564E-12    0.36168092E-07
   10   -0.19432681E+03   -0.85265128E-13    0.37516008E-08

Total Energy:                     -192.3742637967 H        -5234.7701 eV
Extrapolated to 0K:               -192.3742637967 H        -5234.7701 eV
Total Mermin free energy:         -192.3742637967 H        -5234.7701 eV
Force related energy:             -192.3742637967 H        -5234.7701 eV

Volume:                              0.992357E+04 au^3   0.147052E+04 A^3
Pressure:                            0.572481E-05 au     0.168430E+09 Pa
>> Charges saved for restart in charges.bin

total energy  -1.9237426E+02 H       energy change -4.6090941E-04 H
gradient norm  1.4092612E-02 H/a0    max. gradient  2.6684236E-03 H/a0
step length    9.1900884E-02 a0      max. step      1.6843388E-02 a0

--------------------------------------------------------------------------------

***  Geometry step: 22

 iSCC Total electronic   Diff electronic      SCC error    
    1   -0.19432681E+03    0.00000000E+00    0.28126498E-02
    2   -0.19432603E+03    0.78094889E-03    0.12892150E-02
    3   -0.19432604E+03   -0.68841658E-05    0.42063169E-03
    4   -0.19432604E+03   -0.16073071E-05    0.57232936E-04
    5   -0.19432604E+03   -0.27054227E-07    0.91884150E-05
    6   -0.19432604E+03   -0.21920812E-08    0.24583187E-05
    7   -0.19432604E+03   -0.67615247E-10    0.76617265E-06
    8   -0.19432604E+03   -0.14779289E-11    0.16504661E-06
    9   -0.19432604E+03   -0.17053026E-12    0.29949395E-07
   10   -0.19432604E+03   -0.11368684E-12    0.49733377E-08

Total Energy:                     -192.3745726640 H        -5234.7785 eV
Extrapolated to 0K:               -192.3745726640 H        -5234.7785 eV
Total Mermin free energy:         -192.3745726640 H        -5234.7785 eV
Force related energy:             -192.3745726640 H        -5234.7785 eV

Volume:                              0.993400E+04 au^3   0.147207E+04 A^3
Pressure:                            0.436134E-05 au     0.128315E+09 Pa
>> Charges saved for restart in charges.bin

total energy  -1.9237457E+02 H       energy change -3.0886732E-04 H
gradient norm  1.1871187E-02 H/a0    max. gradient  3.1109266E-03 H/a0
step length    6.9944087E-02 a0      max. step      1.3026642E-02 a0

--------------------------------------------------------------------------------

***  Geometry step: 23

 iSCC Total electronic   Diff electronic      SCC error    
    1   -0.19432604E+03    0.00000000E+00    0.25082047E-02
    2   -0.19432749E+03   -0.14560070E-02    0.10690716E-02
    3   -0.19432750E+03   -0.44813982E-05    0.25719810E-03
    4   -0.19432750E+03   -0.10350285E-05    0.36730020E-04
    5   -0.19432750E+03   -0.11330201E-07    0.68901527E-05
    6   -0.19432750E+03   -0.71017325E-09    0.17607502E-05
    7   -0.19432750E+03   -0.35129233E-10    0.53977766E-06
    8   -0.19432750E+03   -0.73896445E-12    0.11000335E-06
    9   -0.19432750E+03   -0.85265128E-13    0.18101498E-07
   10   -0.19432750E+03   -0.28421709E-13    0.37230667E-08

Total Energy:                     -192.3747699868 H        -5234.7838 eV
Extrapolated to 0K:               -192.3747699868 H        -5234.7838 eV
Total Mermin free energy:         -192.3747699868 H        -5234.7838 eV
Force related energy:             -192.3747699868 H        -5234.7838 eV

Volume:                              0.994053E+04 au^3   0.147304E+04 A^3
Pressure:                            0.439823E-05 au     0.129400E+09 Pa
>> Charges saved for restart in charges.bin

total energy  -1.9237477E+02 H       energy change -1.9732273E-04 H
gradient norm  1.0662961E-02 H/a0    max. gradient  3.1657082E-03 H/a0
step length    4.7142839E-02 a0      max. step      9.5573059E-03 a0

--------------------------------------------------------------------------------

***  Geometry step: 24

 iSCC Total electronic   Diff electronic      SCC error    
    1   -0.19432750E+03    0.00000000E+00    0.25628791E-02
    2   -0.19432944E+03   -0.19449320E-02    0.13858100E-02
    3   -0.19432945E+03   -0.27717926E-05    0.23826660E-03
    4   -0.19432945E+03   -0.63880972E-06    0.23536210E-04
    5   -0.19432945E+03   -0.98402495E-08    0.97370134E-05
    6   -0.19432945E+03   -0.48910920E-09    0.14145038E-05
    7   -0.19432945E+03   -0.15262458E-10    0.33487965E-06
    8   -0.19432945E+03   -0.36948222E-12    0.65790044E-07
    9   -0.19432945E+03   -0.11368684E-12    0.16600380E-07
   10   -0.19432945E+03    0.56843419E-13    0.17471313E-08

Total Energy:                     -192.3749297707 H        -5234.7882 eV
Extrapolated to 0K:               -192.3749297707 H        -5234.7882 eV
Total Mermin free energy:         -192.3749297707 H        -5234.7882 eV
Force related energy:             -192.3749297707 H        -5234.7882 eV

Volume:                              0.994630E+04 au^3   0.147389E+04 A^3
Pressure:                            0.469520E-05 au     0.138137E+09 Pa
>> Charges saved for restart in charges.bin

total energy  -1.9237493E+02 H       energy change -1.5978391E-04 H
gradient norm  9.1390566E-03 H/a0    max. gradient  1.8742161E-03 H/a0
step length    4.2935019E-02 a0      max. step      8.5305996E-03 a0

--------------------------------------------------------------------------------

***  Geometry step: 25

 iSCC Total electronic   Diff electronic      SCC error    
    1   -0.19432945E+03    0.00000000E+00    0.21593327E-02
    2   -0.19433115E+03   -0.17059888E-02    0.11809754E-02
    3   -0.19433116E+03   -0.21541234E-05    0.21951689E-03
    4   -0.19433116E+03   -0.50640051E-06    0.32631853E-04
    5   -0.19433116E+03   -0.10674540E-07    0.82238876E-05
    6   -0.19433116E+03   -0.61504579E-09    0.12783007E-05
    7   -0.19433116E+03   -0.11567636E-10    0.31375683E-06
    8   -0.19433116E+03   -0.42632564E-12    0.58785555E-07
    9   -0.19433116E+03   -0.19895197E-12    0.14879613E-07
   10   -0.19433116E+03    0.85265128E-13    0.18575230E-08

Total Energy:                     -192.3750588613 H        -5234.7917 eV
Extrapolated to 0K:               -192.3750588613 H        -5234.7917 eV
Total Mermin free energy:         -192.3750588613 H        -5234.7917 eV
Force related energy:             -192.3750588613 H        -5234.7917 eV

Volume:                              0.995190E+04 au^3   0.147472E+04 A^3
Pressure:                            0.494782E-05 au     0.145570E+09 Pa
>> Charges saved for restart in charges.bin

total energy  -1.9237506E+02 H       energy change -1.2909068E-04 H
gradient norm  8.5477818E-03 H/a0    max. gradient  1.5285472E-03 H/a0
step length    4.1215675E-02 a0      max. step      8.8131752E-03 a0

--------------------------------------------------------------------------------

***  Geometry step: 26

 iSCC Total electronic   Diff electronic      SCC error    
    1   -0.19433116E+03    0.00000000E+00    0.22730945E-02
    2   -0.19433194E+03   -0.78238052E-03    0.89087641E-03
    3   -0.19433194E+03   -0.23417764E-05    0.23581965E-03
    4   -0.19433194E+03   -0.52626098E-06    0.26545114E-04
    5   -0.19433194E+03   -0.11133125E-07    0.85411709E-05
    6   -0.19433194E+03   -0.75027629E-09    0.14828439E-05
    7   -0.19433194E+03   -0.10544454E-10    0.31272871E-06
    8   -0.19433194E+03   -0.28421709E-12    0.66996062E-07
    9   -0.19433194E+03   -0.17053026E-12    0.11569802E-07
   10   -0.19433194E+03    0.85265128E-13    0.14989281E-08

Total Energy:                     -192.3751874153 H        -5234.7952 eV
Extrapolated to 0K:               -192.3751874153 H        -5234.7952 eV
Total Mermin free energy:         -192.3751874153 H        -5234.7952 eV
Force related energy:             -192.3751874153 H        -5234.7952 eV

Volume:                              0.995839E+04 au^3   0.147568E+04 A^3
Pressure:                            0.475147E-05 au     0.139793E+09 Pa
>> Charges saved for restart in charges.bin

total energy  -1.9237519E+02 H       energy change -1.2855397E-04 H
gradient norm  9.3501496E-03 H/a0    max. gradient  2.6567160E-03 H/a0
step length    4.3957759E-02 a0      max. step      9.5289324E-03 a0

--------------------------------------------------------------------------------

***  Geometry step: 27

 iSCC Total electronic   Diff electronic      SCC error    
    1   -0.19433194E+03    0.00000000E+00    0.21063315E-02
    2   -0.19433189E+03    0.55960327E-04    0.11768280E-02
    3   -0.19433189E+03   -0.33202479E-05    0.35171083E-03
    4   -0.19433189E+03   -0.72974402E-06    0.38532511E-04
    5   -0.19433189E+03   -0.14019577E-07    0.65051885E-05
    6   -0.19433189E+03   -0.11594068E-08    0.15258178E-05
    7   -0.19433189E+03   -0.12192913E-10    0.41478305E-06
    8   -0.19433189E+03   -0.22737368E-12    0.73191132E-07
    9   -0.19433189E+03   -0.11368684E-12    0.18256609E-07
   10   -0.19433189E+03    0.85265128E-13    0.25320688E-08

Total Energy:                     -192.3753395048 H        -5234.7993 eV
Extrapolated to 0K:               -192.3753395048 H        -5234.7993 eV
Total Mermin free energy:         -192.3753395048 H        -5234.7993 eV
Force related energy:             -192.3753395048 H        -5234.7993 eV

Volume:                              0.996702E+04 au^3   0.147696E+04 A^3
Pressure:                            0.416070E-05 au     0.122412E+09 Pa
>> Charges saved for restart in charges.bin

total energy  -1.9237534E+02 H       energy change -1.5208953E-04 H
gradient norm  1.0321197E-02 H/a0    max. gradient  2.9334875E-03 H/a0
step length    5.7131908E-02 a0      max. step      1.1689606E-02 a0

--------------------------------------------------------------------------------

***  Geometry step: 28

 iSCC Total electronic   Diff electronic      SCC error    
    1   -0.19433189E+03    0.00000000E+00    0.22690279E-02
    2   -0.19433041E+03    0.14774203E-02    0.12548807E-02
    3   -0.19433041E+03   -0.29918934E-05    0.38447690E-03
    4   -0.19433042E+03   -0.63664967E-06    0.36612695E-04
    5   -0.19433042E+03   -0.14960989E-07    0.39063599E-05
    6   -0.19433042E+03   -0.11461054E-08    0.14856047E-05
    7   -0.19433042E+03   -0.10288659E-10    0.52977725E-06
    8   -0.19433042E+03   -0.19895197E-12    0.58448686E-07
    9   -0.19433042E+03   -0.11368684E-12    0.17446567E-07
   10   -0.19433042E+03    0.85265128E-13    0.23662445E-08

Total Energy:                     -192.3755013818 H        -5234.8037 eV
Extrapolated to 0K:               -192.3755013818 H        -5234.8037 eV
Total Mermin free energy:         -192.3755013818 H        -5234.8037 eV
Force related energy:             -192.3755013818 H        -5234.8037 eV

Volume:                              0.997742E+04 au^3   0.147850E+04 A^3
Pressure:                            0.273323E-05 au     0.804145E+08 Pa
>> Charges saved for restart in charges.bin

total energy  -1.9237550E+02 H       energy change -1.6187693E-04 H
gradient norm  1.0359527E-02 H/a0    max. gradient  2.2014779E-03 H/a0
step length    6.8503195E-02 a0      max. step      1.2936046E-02 a0

--------------------------------------------------------------------------------

***  Geometry step: 29

 iSCC Total electronic   Diff electronic      SCC error    
    1   -0.19433042E+03    0.00000000E+00    0.20223170E-02
    2   -0.19432927E+03    0.11431637E-02    0.92456073E-03
    3   -0.19432927E+03   -0.17501542E-05    0.28616453E-03
    4   -0.19432927E+03   -0.36063909E-06    0.30427619E-04
    5   -0.19432927E+03   -0.12960413E-07    0.55464128E-05
    6   -0.19432927E+03   -0.78520657E-09    0.10992461E-05
    7   -0.19432927E+03   -0.96918029E-11    0.39394363E-06
    8   -0.19432927E+03   -0.17053026E-12    0.67415670E-07
    9   -0.19432927E+03   -0.14210855E-12    0.13580463E-07
   10   -0.19432927E+03    0.14210855E-12    0.21511983E-08

Total Energy:                     -192.3756598884 H        -5234.8080 eV
Extrapolated to 0K:               -192.3756598884 H        -5234.8080 eV
Total Mermin free energy:         -192.3756598884 H        -5234.8080 eV
Force related energy:             -192.3756598884 H        -5234.8080 eV

Volume:                              0.998615E+04 au^3   0.147979E+04 A^3
Pressure:                            0.134587E-05 au     0.395967E+08 Pa
>> Charges saved for restart in charges.bin

total energy  -1.9237566E+02 H       energy change -1.5850667E-04 H
gradient norm  9.2373009E-03 H/a0    max. gradient  2.0448943E-03 H/a0
step length    6.6983178E-02 a0      max. step      1.3119835E-02 a0

--------------------------------------------------------------------------------

***  Geometry step: 30

 iSCC Total electronic   Diff electronic      SCC error    
    1   -0.19432927E+03    0.00000000E+00    0.13175276E-02
    2   -0.19432950E+03   -0.22431326E-03    0.65884757E-03
    3   -0.19432950E+03   -0.23277536E-05    0.21039888E-03
    4   -0.19432950E+03   -0.47945522E-06    0.29491426E-04
    5   -0.19432950E+03   -0.11886073E-07    0.44981413E-05
    6   -0.19432950E+03   -0.94300390E-09    0.99587293E-06
    7   -0.19432950E+03   -0.14779289E-10    0.31245630E-06
    8   -0.19432950E+03   -0.19895197E-12    0.64357612E-07
    9   -0.19432950E+03   -0.19895197E-12    0.10400013E-07
   10   -0.19432950E+03    0.56843419E-13    0.25057778E-08

Total Energy:                     -192.3758096589 H        -5234.8121 eV
Extrapolated to 0K:               -192.3758096589 H        -5234.8121 eV
Total Mermin free energy:         -192.3758096589 H        -5234.8121 eV
Force related energy:             -192.3758096589 H        -5234.8121 eV

Volume:                              0.999268E+04 au^3   0.148076E+04 A^3
Pressure:                            0.568957E-06 au     0.167393E+08 Pa
>> Charges saved for restart in charges.bin

total energy  -1.9237581E+02 H       energy change -1.4977048E-04 H
gradient norm  8.9242524E-03 H/a0    max. gradient  1.6585959E-03 H/a0
step length    6.6702050E-02 a0      max. step      1.3825734E-02 a0

--------------------------------------------------------------------------------

***  Geometry step: 31

 iSCC Total electronic   Diff electronic      SCC error    
    1   -0.19432950E+03    0.00000000E+00    0.15025062E-02
    2   -0.19433112E+03   -0.16213402E-02    0.63837711E-03
    3   -0.19433113E+03   -0.28251720E-05    0.20174792E-03
    4   -0.19433113E+03   -0.58454586E-06    0.26430491E-04
    5   -0.19433113E+03   -0.81199971E-08    0.32674686E-05
    6   -0.19433113E+03   -0.79779738E-09    0.83800195E-06
    7   -0.19433113E+03   -0.12335022E-10    0.35221588E-06
    8   -0.19433113E+03   -0.36948222E-12    0.68616394E-07
    9   -0.19433113E+03   -0.28421709E-13    0.10138479E-07
   10   -0.19433113E+03    0.00000000E+00    0.23820235E-08

Total Energy:                     -192.3759467012 H        -5234.8159 eV
Extrapolated to 0K:               -192.3759467012 H        -5234.8159 eV
Total Mermin free energy:         -192.3759467012 H        -5234.8159 eV
Force related energy:             -192.3759467012 H        -5234.8159 eV

Volume:                              0.999673E+04 au^3   0.148136E+04 A^3
Pressure:                            0.566932E-06 au     0.166797E+08 Pa
>> Charges saved for restart in charges.bin

total energy  -1.9237595E+02 H       energy change -1.3704231E-04 H
gradient norm  9.6113176E-03 H/a0    max. gradient  2.6590968E-03 H/a0
step length    6.2946107E-02 a0      max. step      1.3445552E-02 a0

--------------------------------------------------------------------------------

***  Geometry step: 32

 iSCC Total electronic   Diff electronic      SCC error    
    1   -0.19433113E+03    0.00000000E+00    0.19156492E-02
    2   -0.19433376E+03   -0.26359071E-02    0.76696111E-03
    3   -0.19433377E+03   -0.30810675E-05    0.21046892E-03
    4   -0.19433377E+03   -0.64473127E-06    0.35014648E-04
    5   -0.19433377E+03   -0.68642407E-08    0.48252279E-05
    6   -0.19433377E+03   -0.65432459E-09    0.14221769E-05
    7   -0.19433377E+03   -0.11823431E-10    0.37058359E-06
    8   -0.19433377E+03   -0.25579538E-12    0.69478756E-07
    9   -0.19433377E+03    0.00000000E+00    0.17733931E-07
   10   -0.19433377E+03   -0.85265128E-13    0.21300153E-08

Total Energy:                     -192.3760943846 H        -5234.8199 eV
Extrapolated to 0K:               -192.3760943846 H        -5234.8199 eV
Total Mermin free energy:         -192.3760943846 H        -5234.8199 eV
Force related energy:             -192.3760943846 H        -5234.8199 eV

Volume:                              0.999945E+04 au^3   0.148177E+04 A^3
Pressure:                            0.112748E-05 au     0.331716E+08 Pa
>> Charges saved for restart in charges.bin

total energy  -1.9237609E+02 H       energy change -1.4768334E-04 H
gradient norm  9.8461237E-03 H/a0    max. gradient  2.3982022E-03 H/a0
step length    6.8017407E-02 a0      max. step      1.4854676E-02 a0

--------------------------------------------------------------------------------

***  Geometry step: 33

 iSCC Total electronic   Diff electronic      SCC error    
    1   -0.19433377E+03    0.00000000E+00    0.23424387E-02
    2   -0.19433674E+03   -0.29770525E-02    0.98469780E-03
    3   -0.19433675E+03   -0.26913030E-05    0.21697306E-03
    4   -0.19433675E+03   -0.59811475E-06    0.32328995E-04
    5   -0.19433675E+03   -0.89055732E-08    0.74665616E-05
    6   -0.19433675E+03   -0.79998586E-09    0.18127307E-05
    7   -0.19433675E+03   -0.13642421E-10    0.32815843E-06
    8   -0.19433675E+03   -0.48316906E-12    0.71083160E-07
    9   -0.19433675E+03    0.85265128E-13    0.24504624E-07
   10   -0.19433675E+03   -0.11368684E-12    0.30705651E-08

Total Energy:                     -192.3762576897 H        -5234.8243 eV
Extrapolated to 0K:               -192.3762576897 H        -5234.8243 eV
Total Mermin free energy:         -192.3762576897 H        -5234.8243 eV
Force related energy:             -192.3762576897 H        -5234.8243 eV

Volume:                              0.100021E+05 au^3   0.148215E+04 A^3
Pressure:                            0.209443E-05 au     0.616201E+08 Pa
>> Charges saved for restart in charges.bin

total energy  -1.9237626E+02 H       energy change -1.6330514E-04 H
gradient norm  9.6772092E-03 H/a0    max. gradient  2.1639210E-03 H/a0
step length    8.2672797E-02 a0      max. step      1.8252592E-02 a0

--------------------------------------------------------------------------------

***  Geometry step: 34

 iSCC Total electronic   Diff electronic      SCC error    
    1   -0.19433675E+03    0.00000000E+00    0.14545713E-02
    2   -0.19433823E+03   -0.14846652E-02    0.72821026E-03
    3   -0.19433823E+03   -0.14012394E-05    0.20408920E-03
    4   -0.19433823E+03   -0.32245822E-06    0.29163636E-04
    5   -0.19433823E+03   -0.10450407E-07    0.56885474E-05
    6   -0.19433823E+03   -0.53245230E-09    0.94168740E-06
    7   -0.19433823E+03   -0.73896445E-11    0.31511316E-06
    8   -0.19433823E+03   -0.25579538E-12    0.70713158E-07
    9   -0.19433823E+03   -0.14210855E-12    0.12736137E-07
   10   -0.19433823E+03    0.00000000E+00    0.17004584E-08

Total Energy:                     -192.3764141635 H        -5234.8286 eV
Extrapolated to 0K:               -192.3764141635 H        -5234.8286 eV
Total Mermin free energy:         -192.3764141635 H        -5234.8286 eV
Force related energy:             -192.3764141635 H        -5234.8286 eV

Volume:                              0.100052E+05 au^3   0.148261E+04 A^3
Pressure:                            0.254436E-05 au     0.748576E+08 Pa
>> Charges saved for restart in charges.bin

total energy  -1.9237641E+02 H       energy change -1.5647380E-04 H
gradient norm  9.8444335E-03 H/a0    max. gradient  2.1976490E-03 H/a0
step length    8.3533060E-02 a0      max. step      1.8528190E-02 a0

--------------------------------------------------------------------------------

***  Geometry step: 35

 iSCC Total electronic   Diff electronic      SCC error    
    1   -0.19433823E+03    0.00000000E+00    0.19806968E-02
    2   -0.19433875E+03   -0.51817511E-03    0.11237045E-02
    3   -0.19433875E+03   -0.22771823E-05    0.26003906E-03
    4   -0.19433875E+03   -0.51267668E-06    0.37712203E-04
    5   -0.19433875E+03   -0.18943354E-07    0.12223674E-04
    6   -0.19433875E+03   -0.69383077E-09    0.19124491E-05
    7   -0.19433875E+03   -0.12875034E-10    0.41396253E-06
    8   -0.19433875E+03   -0.45474735E-12    0.10579104E-06
    9   -0.19433875E+03   -0.28421709E-13    0.16282135E-07
   10   -0.19433875E+03    0.00000000E+00    0.24832874E-08

Total Energy:                     -192.3765950831 H        -5234.8335 eV
Extrapolated to 0K:               -192.3765950831 H        -5234.8335 eV
Total Mermin free energy:         -192.3765950831 H        -5234.8335 eV
Force related energy:             -192.3765950831 H        -5234.8335 eV

Volume:                              0.100090E+05 au^3   0.148318E+04 A^3
Pressure:                            0.262986E-05 au     0.773732E+08 Pa
>> Charges saved for restart in charges.bin

total energy  -1.9237660E+02 H       energy change -1.8091961E-04 H
gradient norm  1.0311526E-02 H/a0    max. gradient  3.0694513E-03 H/a0
step length    1.0063908E-01 a0      max. step      2.2295124E-02 a0

--------------------------------------------------------------------------------

***  Geometry step: 36

 iSCC Total electronic   Diff electronic      SCC error    
    1   -0.19433875E+03    0.00000000E+00    0.23876272E-02
    2   -0.19433841E+03    0.34632399E-03    0.13395856E-02
    3   -0.19433841E+03   -0.28137558E-05    0.32974321E-03
    4   -0.19433841E+03   -0.62570911E-06    0.34992358E-04
    5   -0.19433841E+03   -0.20122457E-07    0.15199532E-04
    6   -0.19433841E+03   -0.92327923E-09    0.20301406E-05
    7   -0.19433841E+03   -0.19156232E-10    0.41213415E-06
    8   -0.19433841E+03   -0.62527761E-12    0.12610124E-06
    9   -0.19433841E+03   -0.56843419E-13    0.21574088E-07
   10   -0.19433841E+03   -0.56843419E-13    0.26317428E-08

Total Energy:                     -192.3767594639 H        -5234.8380 eV
Extrapolated to 0K:               -192.3767594639 H        -5234.8380 eV
Total Mermin free energy:         -192.3767594639 H        -5234.8380 eV
Force related energy:             -192.3767594639 H        -5234.8380 eV

Volume:                              0.100127E+05 au^3   0.148373E+04 A^3
Pressure:                            0.222086E-05 au     0.653400E+08 Pa
>> Charges saved for restart in charges.bin

total energy  -1.9237676E+02 H       energy change -1.6438077E-04 H
gradient norm  9.6931125E-03 H/a0    max. gradient  2.5060727E-03 H/a0
step length    9.5131915E-02 a0      max. step      2.0915049E-02 a0

--------------------------------------------------------------------------------

***  Geometry step: 37

 iSCC Total electronic   Diff electronic      SCC error    
    1   -0.19433841E+03    0.00000000E+00    0.20572789E-02
    2   -0.19433834E+03    0.75359692E-04    0.12245353E-02
    3   -0.19433834E+03   -0.24901958E-05    0.33868459E-03
    4   -0.19433834E+03   -0.55025023E-06    0.38122817E-04
    5   -0.19433834E+03   -0.15424405E-07    0.11147575E-04
    6   -0.19433834E+03   -0.89181640E-09    0.16064136E-05
    7   -0.19433834E+03   -0.16655122E-10    0.32121794E-06
    8   -0.19433834E+03   -0.59685590E-12    0.95112283E-07
    9   -0.19433834E+03   -0.56843419E-13    0.23310287E-07
   10   -0.19433834E+03   -0.56843419E-13    0.17965966E-08

Total Energy:                     -192.3769024628 H        -5234.8419 eV
Extrapolated to 0K:               -192.3769024628 H        -5234.8419 eV
Total Mermin free energy:         -192.3769024628 H        -5234.8419 eV
Force related energy:             -192.3769024628 H        -5234.8419 eV

Volume:                              0.100157E+05 au^3   0.148418E+04 A^3
Pressure:                            0.182599E-05 au     0.537226E+08 Pa
>> Charges saved for restart in charges.bin

total energy  -1.9237690E+02 H       energy change -1.4299889E-04 H
gradient norm  8.7944399E-03 H/a0    max. gradient  1.9244790E-03 H/a0
step length    8.6670748E-02 a0      max. step      1.8539264E-02 a0

--------------------------------------------------------------------------------

***  Geometry step: 38

 iSCC Total electronic   Diff electronic      SCC error    
    1   -0.19433834E+03    0.00000000E+00    0.13994287E-02
    2   -0.19433904E+03   -0.70545663E-03    0.86331590E-03
    3   -0.19433905E+03   -0.17915176E-05    0.26943102E-03
    4   -0.19433905E+03   -0.37129269E-06    0.44567842E-04
    5   -0.19433905E+03   -0.76763911E-08    0.70729018E-05
    6   -0.19433905E+03   -0.63855055E-09    0.16317127E-05
    7   -0.19433905E+03   -0.10260237E-10    0.29962849E-06
    8   -0.19433905E+03   -0.34106051E-12    0.75938376E-07
    9   -0.19433905E+03   -0.56843419E-13    0.18395695E-07
   10   -0.19433905E+03    0.28421709E-13    0.17122650E-08

Total Energy:                     -192.3770232581 H        -5234.8451 eV
Extrapolated to 0K:               -192.3770232581 H        -5234.8451 eV
Total Mermin free energy:         -192.3770232581 H        -5234.8451 eV
Force related energy:             -192.3770232581 H        -5234.8451 eV

Volume:                              0.100178E+05 au^3   0.148449E+04 A^3
Pressure:                            0.172779E-05 au     0.508334E+08 Pa
>> Charges saved for restart in charges.bin

total energy  -1.9237702E+02 H       energy change -1.2079537E-04 H
gradient norm  8.0884191E-03 H/a0    max. gradient  1.5905977E-03 H/a0
step length    7.1319920E-02 a0      max. step      1.5008104E-02 a0

--------------------------------------------------------------------------------

***  Geometry step: 39

 iSCC Total electronic   Diff electronic      SCC error    
    1   -0.19433905E+03    0.00000000E+00    0.15524996E-02
    2   -0.19434053E+03   -0.14788499E-02    0.61278652E-03
    3   -0.19434053E+03   -0.20852694E-05    0.16142803E-03
    4   -0.19434053E+03   -0.42473798E-06    0.31898550E-04
    5   -0.19434053E+03   -0.64777055E-08    0.56807218E-05
    6   -0.19434053E+03   -0.43368686E-09    0.17863394E-05
    7   -0.19434053E+03   -0.13898216E-10    0.36595439E-06
    8   -0.19434053E+03   -0.31263880E-12    0.53592938E-07
    9   -0.19434053E+03    0.00000000E+00    0.13800334E-07
   10   -0.19434053E+03   -0.56843419E-13    0.22384690E-08

Total Energy:                     -192.3771430066 H        -5234.8484 eV
Extrapolated to 0K:               -192.3771430066 H        -5234.8484 eV
Total Mermin free energy:         -192.3771430066 H        -5234.8484 eV
Force related energy:             -192.3771430066 H        -5234.8484 eV

Volume:                              0.100200E+05 au^3   0.148481E+04 A^3
Pressure:                            0.175453E-05 au     0.516200E+08 Pa
>> Charges saved for restart in charges.bin

total energy  -1.9237714E+02 H       energy change -1.1974845E-04 H
gradient norm  8.0925597E-03 H/a0    max. gradient  1.7675478E-03 H/a0
step length    7.0426255E-02 a0      max. step      1.5347932E-02 a0

--------------------------------------------------------------------------------

***  Geometry step: 40

 iSCC Total electronic   Diff electronic      SCC error    
    1   -0.19434053E+03    0.00000000E+00    0.13368754E-02
    2   -0.19434265E+03   -0.21206330E-02    0.57956394E-03
    3   -0.19434265E+03   -0.18445740E-05    0.14318273E-03
    4   -0.19434265E+03   -0.36597353E-06    0.32050072E-04
    5   -0.19434265E+03   -0.55577516E-08    0.52589495E-05
    6   -0.19434265E+03   -0.36433789E-09    0.11735671E-05
    7   -0.19434265E+03   -0.14637180E-10    0.28256297E-06
    8   -0.19434265E+03   -0.36948222E-12    0.75413464E-07
    9   -0.19434265E+03    0.56843419E-13    0.15595627E-07
   10   -0.19434265E+03   -0.14210855E-12    0.29697054E-08

Total Energy:                     -192.3772466800 H        -5234.8512 eV
Extrapolated to 0K:               -192.3772466800 H        -5234.8512 eV
Total Mermin free energy:         -192.3772466800 H        -5234.8512 eV
Force related energy:             -192.3772466800 H        -5234.8512 eV

Volume:                              0.100224E+05 au^3   0.148516E+04 A^3
Pressure:                            0.197726E-05 au     0.581729E+08 Pa
>> Charges saved for restart in charges.bin

total energy  -1.9237725E+02 H       energy change -1.0367345E-04 H
gradient norm  8.1849712E-03 H/a0    max. gradient  2.2288115E-03 H/a0
step length    6.5343529E-02 a0      max. step      1.4733589E-02 a0

--------------------------------------------------------------------------------

***  Geometry step: 41

 iSCC Total electronic   Diff electronic      SCC error    
    1   -0.19434265E+03    0.00000000E+00    0.95263115E-03
    2   -0.19434475E+03   -0.20954424E-02    0.52837577E-03
    3   -0.19434475E+03   -0.12629859E-05    0.14655711E-03
    4   -0.19434475E+03   -0.27151145E-06    0.25363243E-04
    5   -0.19434475E+03   -0.38061216E-08    0.56217414E-05
    6   -0.19434475E+03   -0.33577408E-09    0.10479121E-05
    7   -0.19434475E+03   -0.69917405E-11    0.23202739E-06
    8   -0.19434475E+03   -0.28421709E-12    0.71499604E-07
    9   -0.19434475E+03   -0.28421709E-13    0.16391678E-07
   10   -0.19434475E+03    0.00000000E+00    0.18276110E-08

Total Energy:                     -192.3773366730 H        -5234.8537 eV
Extrapolated to 0K:               -192.3773366730 H        -5234.8537 eV
Total Mermin free energy:         -192.3773366730 H        -5234.8537 eV
Force related energy:             -192.3773366730 H        -5234.8537 eV

Volume:                              0.100254E+05 au^3   0.148561E+04 A^3
Pressure:                            0.228240E-05 au     0.671504E+08 Pa
>> Charges saved for restart in charges.bin

total energy  -1.9237734E+02 H       energy change -8.9992975E-05 H
gradient norm  7.4840366E-03 H/a0    max. gradient  1.3539573E-03 H/a0
step length    6.0220636E-02 a0      max. step      1.3745482E-02 a0

--------------------------------------------------------------------------------

***  Geometry step: 42

 iSCC Total electronic   Diff electronic      SCC error    
    1   -0.19434475E+03    0.00000000E+00    0.17670513E-02
    2   -0.19434647E+03   -0.17257960E-02    0.77968839E-03
    3   -0.19434647E+03   -0.17773381E-05    0.22771170E-03
    4   -0.19434648E+03   -0.40834399E-06    0.32946975E-04
    5   -0.19434648E+03   -0.56366503E-08    0.54035024E-05
    6   -0.19434648E+03   -0.47268145E-09    0.12623868E-05
    7   -0.19434648E+03   -0.99191766E-11    0.28654250E-06
    8   -0.19434648E+03   -0.28421709E-12    0.78626599E-07
    9   -0.19434648E+03   -0.56843419E-13    0.16905789E-07
   10   -0.19434648E+03    0.28421709E-13    0.17721629E-08

Total Energy:                     -192.3774315436 H        -5234.8563 eV
Extrapolated to 0K:               -192.3774315436 H        -5234.8563 eV
Total Mermin free energy:         -192.3774315436 H        -5234.8563 eV
Force related energy:             -192.3774315436 H        -5234.8563 eV

Volume:                              0.100303E+05 au^3   0.148634E+04 A^3
Pressure:                            0.247786E-05 au     0.729011E+08 Pa
>> Charges saved for restart in charges.bin

total energy  -1.9237743E+02 H       energy change -9.4870623E-05 H
gradient norm  7.0249511E-03 H/a0    max. gradient  1.3413660E-03 H/a0
step length    7.1257137E-02 a0      max. step      1.6360461E-02 a0

--------------------------------------------------------------------------------

***  Geometry step: 43

 iSCC Total electronic   Diff electronic      SCC error    
    1   -0.19434648E+03    0.00000000E+00    0.11388841E-02
    2   -0.19434687E+03   -0.39951581E-03    0.66671276E-03
    3   -0.19434688E+03   -0.11218150E-05    0.21595879E-03
    4   -0.19434688E+03   -0.24131438E-06    0.24418484E-04
    5   -0.19434688E+03   -0.35793732E-08    0.26988174E-05
    6   -0.19434688E+03   -0.28572344E-09    0.69636957E-06
    7   -0.19434688E+03   -0.43200998E-11    0.18400903E-06
    8   -0.19434688E+03   -0.28421709E-13    0.51104371E-07
    9   -0.19434688E+03   -0.11368684E-12    0.11857248E-07
   10   -0.19434688E+03    0.28421709E-13    0.12927313E-08

Total Energy:                     -192.3775087982 H        -5234.8584 eV
Extrapolated to 0K:               -192.3775087982 H        -5234.8584 eV
Total Mermin free energy:         -192.3775087982 H        -5234.8584 eV
Force related energy:             -192.3775087982 H        -5234.8584 eV

Volume:                              0.100354E+05 au^3   0.148709E+04 A^3
Pressure:                            0.227810E-05 au     0.670241E+08 Pa
>> Charges saved for restart in charges.bin

total energy  -1.9237751E+02 H       energy change -7.7254598E-05 H
gradient norm  7.3385685E-03 H/a0    max. gradient  1.7089470E-03 H/a0
step length    5.8700139E-02 a0      max. step      1.3538100E-02 a0

--------------------------------------------------------------------------------

***  Geometry step: 44

 iSCC Total electronic   Diff electronic      SCC error    
    1   -0.19434688E+03    0.00000000E+00    0.14299527E-02
    2   -0.19434642E+03    0.45607464E-03    0.77918484E-03
    3   -0.19434642E+03   -0.16632502E-05    0.26883118E-03
    4   -0.19434642E+03   -0.33273795E-06    0.27787603E-04
    5   -0.19434642E+03   -0.56624287E-08    0.23576339E-05
    6   -0.19434642E+03   -0.46568971E-09    0.85483983E-06
    7   -0.19434642E+03   -0.53717031E-11    0.32045827E-06
    8   -0.19434642E+03   -0.85265128E-13    0.44343393E-07
    9   -0.19434642E+03    0.00000000E+00    0.60120793E-08

Total Energy:                     -192.3776029217 H        -5234.8609 eV
Extrapolated to 0K:               -192.3776029217 H        -5234.8609 eV
Total Mermin free energy:         -192.3776029217 H        -5234.8609 eV
Force related energy:             -192.3776029217 H        -5234.8609 eV

Volume:                              0.100427E+05 au^3   0.148818E+04 A^3
Pressure:                            0.157830E-05 au     0.464351E+08 Pa
>> Charges saved for restart in charges.bin

total energy  -1.9237760E+02 H       energy change -9.4123452E-05 H
gradient norm  7.4564949E-03 H/a0    max. gradient  1.8985699E-03 H/a0
step length    7.8058541E-02 a0      max. step      1.8139878E-02 a0

--------------------------------------------------------------------------------

***  Geometry step: 45

 iSCC Total electronic   Diff electronic      SCC error    
    1   -0.19434642E+03    0.00000000E+00    0.10344165E-02
    2   -0.19434577E+03    0.65704606E-03    0.54869524E-03
    3   -0.19434577E+03   -0.10838594E-05    0.18399418E-03
    4   -0.19434577E+03   -0.23035025E-06    0.19689863E-04
    5   -0.19434577E+03   -0.44134936E-08    0.40896434E-05
    6   -0.19434577E+03   -0.29626790E-09    0.70844117E-06
    7   -0.19434577E+03   -0.25863756E-11    0.16114467E-06
    8   -0.19434577E+03   -0.85265128E-13    0.37854581E-07
    9   -0.19434577E+03    0.00000000E+00    0.10210870E-07
   10   -0.19434577E+03   -0.28421709E-13    0.11334795E-08

Total Energy:                     -192.3776826412 H        -5234.8631 eV
Extrapolated to 0K:               -192.3776826412 H        -5234.8631 eV
Total Mermin free energy:         -192.3776826412 H        -5234.8631 eV
Force related energy:             -192.3776826412 H        -5234.8631 eV

Volume:                              0.100493E+05 au^3   0.148915E+04 A^3
Pressure:                            0.866843E-06 au     0.255034E+08 Pa
>> Charges saved for restart in charges.bin

total energy  -1.9237768E+02 H       energy change -7.9719491E-05 H
gradient norm  6.7486462E-03 H/a0    max. gradient  1.2391982E-03 H/a0
step length    7.0849040E-02 a0      max. step      1.6734200E-02 a0

--------------------------------------------------------------------------------

***  Geometry step: 46

 iSCC Total electronic   Diff electronic      SCC error    
    1   -0.19434577E+03    0.00000000E+00    0.96672793E-03
    2   -0.19434511E+03    0.65254568E-03    0.53785830E-03
    3   -0.19434511E+03   -0.96456125E-06    0.13774510E-03
    4   -0.19434512E+03   -0.22657025E-06    0.14789845E-04
    5   -0.19434512E+03   -0.40085979E-08    0.47477478E-05
    6   -0.19434512E+03   -0.21205437E-09    0.58120471E-06
    7   -0.19434512E+03   -0.36948222E-11    0.18479260E-06
    8   -0.19434512E+03   -0.11368684E-12    0.40829586E-07
    9   -0.19434512E+03    0.00000000E+00    0.90602192E-08

Total Energy:                     -192.3777548061 H        -5234.8651 eV
Extrapolated to 0K:               -192.3777548061 H        -5234.8651 eV
Total Mermin free energy:         -192.3777548061 H        -5234.8651 eV
Force related energy:             -192.3777548061 H        -5234.8651 eV

Volume:                              0.100552E+05 au^3   0.149002E+04 A^3
Pressure:                           -0.878257E-07 au    -0.258392E+07 Pa
>> Charges saved for restart in charges.bin

total energy  -1.9237775E+02 H       energy change -7.2164950E-05 H
gradient norm  6.0427291E-03 H/a0    max. gradient  1.3793564E-03 H/a0
step length    6.9204385E-02 a0      max. step      1.6654696E-02 a0

--------------------------------------------------------------------------------

***  Geometry step: 47

 iSCC Total electronic   Diff electronic      SCC error    
    1   -0.19434512E+03    0.00000000E+00    0.97620311E-03
    2   -0.19434592E+03   -0.80056149E-03    0.45076089E-03
    3   -0.19434592E+03   -0.10323103E-05    0.13907073E-03
    4   -0.19434592E+03   -0.24464640E-06    0.16328235E-04
    5   -0.19434592E+03   -0.25504505E-08    0.19322434E-05
    6   -0.19434592E+03   -0.20565949E-09    0.53336151E-06
    7   -0.19434592E+03   -0.48601123E-11    0.20298963E-06
    8   -0.19434592E+03    0.00000000E+00    0.40661114E-07
    9   -0.19434592E+03    0.00000000E+00    0.93802424E-08

Total Energy:                     -192.3778169491 H        -5234.8667 eV
Extrapolated to 0K:               -192.3778169491 H        -5234.8667 eV
Total Mermin free energy:         -192.3778169491 H        -5234.8667 eV
Force related energy:             -192.3778169491 H        -5234.8667 eV

Volume:                              0.100583E+05 au^3   0.149048E+04 A^3
Pressure:                           -0.159301E-06 au    -0.468681E+07 Pa
>> Charges saved for restart in charges.bin

total energy  -1.9237782E+02 H       energy change -6.2143007E-05 H
gradient norm  6.0698355E-03 H/a0    max. gradient  1.2166922E-03 H/a0
step length    5.6959018E-02 a0      max. step      1.3965833E-02 a0

--------------------------------------------------------------------------------

***  Geometry step: 48

 iSCC Total electronic   Diff electronic      SCC error    
    1   -0.19434592E+03    0.00000000E+00    0.12268133E-02
    2   -0.19434695E+03   -0.10370496E-02    0.51816048E-03
    3   -0.19434696E+03   -0.14813237E-05    0.13983964E-03
    4   -0.19434696E+03   -0.32636899E-06    0.19214531E-04
    5   -0.19434696E+03   -0.32598280E-08    0.34944958E-05
    6   -0.19434696E+03   -0.27026203E-09    0.87469745E-06
    7   -0.19434696E+03   -0.62527761E-11    0.23863479E-06
    8   -0.19434696E+03   -0.85265128E-13    0.49610719E-07
    9   -0.19434696E+03   -0.14210855E-12    0.14673831E-07
   10   -0.19434696E+03    0.85265128E-13    0.20134379E-08

Total Energy:                     -192.3778823392 H        -5234.8685 eV
Extrapolated to 0K:               -192.3778823392 H        -5234.8685 eV
Total Mermin free energy:         -192.3778823392 H        -5234.8685 eV
Force related energy:             -192.3778823392 H        -5234.8685 eV

Volume:                              0.100611E+05 au^3   0.149090E+04 A^3
Pressure:                           -0.247770E-06 au    -0.728965E+07 Pa
>> Charges saved for restart in charges.bin

total energy  -1.9237788E+02 H       energy change -6.5390109E-05 H
gradient norm  6.5160150E-03 H/a0    max. gradient  1.6805800E-03 H/a0
step length    6.1934059E-02 a0      max. step      1.5218393E-02 a0

--------------------------------------------------------------------------------

***  Geometry step: 49

 iSCC Total electronic   Diff electronic      SCC error    
    1   -0.19434696E+03    0.00000000E+00    0.12451098E-02
    2   -0.19434845E+03   -0.14990809E-02    0.51719617E-03
    3   -0.19434846E+03   -0.11629213E-05    0.11762941E-03
    4   -0.19434846E+03   -0.23942815E-06    0.18699211E-04
    5   -0.19434846E+03   -0.32073615E-08    0.38373616E-05
    6   -0.19434846E+03   -0.26378189E-09    0.76628829E-06
    7   -0.19434846E+03   -0.57127636E-11    0.19542918E-06
    8   -0.19434846E+03   -0.56843419E-13    0.55971387E-07
    9   -0.19434846E+03    0.28421709E-13    0.10773579E-07
   10   -0.19434846E+03   -0.85265128E-13    0.11861800E-08

Total Energy:                     -192.3779470497 H        -5234.8703 eV
Extrapolated to 0K:               -192.3779470497 H        -5234.8703 eV
Total Mermin free energy:         -192.3779470497 H        -5234.8703 eV
Force related energy:             -192.3779470497 H        -5234.8703 eV

Volume:                              0.100627E+05 au^3   0.149115E+04 A^3
Pressure:                            0.168544E-07 au     0.495873E+06 Pa
>> Charges saved for restart in charges.bin

total energy  -1.9237795E+02 H       energy change -6.4710468E-05 H
gradient norm  6.4617049E-03 H/a0    max. gradient  1.2755306E-03 H/a0
step length    5.8561568E-02 a0      max. step      1.4301847E-02 a0

--------------------------------------------------------------------------------

***  Geometry step: 50

 iSCC Total electronic   Diff electronic      SCC error    
    1   -0.19434846E+03    0.00000000E+00    0.10475306E-02
    2   -0.19434954E+03   -0.10801644E-02    0.54702719E-03
    3   -0.19434954E+03   -0.94082048E-06    0.16635263E-03
    4   -0.19434954E+03   -0.19450169E-06    0.18738199E-04
    5   -0.19434954E+03   -0.34517029E-08    0.41620921E-05
    6   -0.19434954E+03   -0.28484237E-09    0.79238692E-06
    7   -0.19434954E+03   -0.38937742E-11    0.16203412E-06
    8   -0.19434954E+03   -0.85265128E-13    0.46499873E-07
    9   -0.19434954E+03    0.28421709E-13    0.10731239E-07
   10   -0.19434954E+03    0.28421709E-13    0.12003953E-08

Total Energy:                     -192.3780121177 H        -5234.8721 eV
Extrapolated to 0K:               -192.3780121177 H        -5234.8721 eV
Total Mermin free energy:         -192.3780121177 H        -5234.8721 eV
Force related energy:             -192.3780121177 H        -5234.8721 eV

Volume:                              0.100645E+05 au^3   0.149140E+04 A^3
Pressure:                            0.230811E-06 au     0.679068E+07 Pa
>> Charges saved for restart in charges.bin

total energy  -1.9237801E+02 H       energy change -6.5067949E-05 H
gradient norm  6.1871118E-03 H/a0    max. gradient  1.2484476E-03 H/a0
step length    6.1006396E-02 a0      max. step      1.4505561E-02 a0

--------------------------------------------------------------------------------

***  Geometry step: 51

 iSCC Total electronic   Diff electronic      SCC error    
    1   -0.19434954E+03    0.00000000E+00    0.12911624E-02
    2   -0.19434998E+03   -0.43761799E-03    0.78186898E-03
    3   -0.19434998E+03   -0.93261883E-06    0.21232910E-03
    4   -0.19434998E+03   -0.21221831E-06    0.18379667E-04
    5   -0.19434998E+03   -0.40782595E-08    0.25973319E-05
    6   -0.19434998E+03   -0.28074965E-09    0.56297132E-06
    7   -0.19434998E+03   -0.37516656E-11    0.15858102E-06
    8   -0.19434998E+03   -0.85265128E-13    0.29112066E-07
    9   -0.19434998E+03   -0.85265128E-13    0.11446086E-07
   10   -0.19434998E+03    0.56843419E-13    0.10385675E-08

Total Energy:                     -192.3780801993 H        -5234.8739 eV
Extrapolated to 0K:               -192.3780801993 H        -5234.8739 eV
Total Mermin free energy:         -192.3780801993 H        -5234.8739 eV
Force related energy:             -192.3780801993 H        -5234.8739 eV

Volume:                              0.100663E+05 au^3   0.149167E+04 A^3
Pressure:                            0.377900E-06 au     0.111182E+08 Pa
>> Charges saved for restart in charges.bin

total energy  -1.9237808E+02 H       energy change -6.8081683E-05 H
gradient norm  6.3017267E-03 H/a0    max. gradient  1.7520930E-03 H/a0
step length    6.1677818E-02 a0      max. step      1.3776243E-02 a0

--------------------------------------------------------------------------------

***  Geometry step: 52

 iSCC Total electronic   Diff electronic      SCC error    
    1   -0.19434998E+03    0.00000000E+00    0.14009478E-02
    2   -0.19434956E+03    0.41783298E-03    0.84598074E-03
    3   -0.19434956E+03   -0.11071421E-05    0.21695627E-03
    4   -0.19434956E+03   -0.26895458E-06    0.17735519E-04
[...]
Total Mermin free energy:         -192.3800548816 H        -5234.9276 eV
Force related energy:             -192.3800548816 H        -5234.9276 eV

Volume:                              0.997380E+04 au^3   0.147797E+04 A^3
Pressure:                            0.525636E-07 au     0.154647E+07 Pa
>> Charges saved for restart in charges.bin

total energy  -1.9238005E+02 H       energy change -1.4212257E-06 H
gradient norm  8.2710072E-04 H/a0    max. gradient  1.6593588E-04 H/a0
step length    2.6454283E-03 a0      max. step      4.9615643E-04 a0

--------------------------------------------------------------------------------

***  Geometry step: 206

 iSCC Total electronic   Diff electronic      SCC error    
    1   -0.19434584E+03    0.00000000E+00    0.29862012E-03
    2   -0.19434599E+03   -0.14299182E-03    0.13137535E-03
    3   -0.19434599E+03   -0.52094464E-07    0.34935103E-04
    4   -0.19434599E+03   -0.11701673E-07    0.40242600E-05
    5   -0.19434599E+03   -0.16891022E-09    0.69987017E-06
    6   -0.19434599E+03   -0.12221335E-10    0.13686827E-06
    7   -0.19434599E+03   -0.22737368E-12    0.20248187E-07
    8   -0.19434599E+03    0.28421709E-13    0.79366758E-08

Total Energy:                     -192.3800563469 H        -5234.9277 eV
Extrapolated to 0K:               -192.3800563469 H        -5234.9277 eV
Total Mermin free energy:         -192.3800563469 H        -5234.9277 eV
Force related energy:             -192.3800563469 H        -5234.9277 eV

Volume:                              0.997213E+04 au^3   0.147772E+04 A^3
Pressure:                            0.188587E-06 au     0.554840E+07 Pa
>> Charges saved for restart in charges.bin

total energy  -1.9238006E+02 H       energy change -1.4653222E-06 H
gradient norm  8.3658346E-04 H/a0    max. gradient  2.0873448E-04 H/a0
step length    1.6512931E-02 a0      max. step      3.1247257E-03 a0

--------------------------------------------------------------------------------

***  Geometry step: 207

 iSCC Total electronic   Diff electronic      SCC error    
    1   -0.19434599E+03    0.00000000E+00    0.89017381E-04
    2   -0.19434603E+03   -0.48602162E-04    0.40304713E-04
    3   -0.19434603E+03   -0.10669112E-07    0.13003923E-04
    4   -0.19434603E+03   -0.24504345E-08    0.19915752E-05
    5   -0.19434603E+03   -0.28819613E-10    0.27717361E-06
    6   -0.19434603E+03   -0.22737368E-11    0.58031008E-07
    7   -0.19434603E+03   -0.28421709E-13    0.85194030E-08

Total Energy:                     -192.3800571088 H        -5234.9277 eV
Extrapolated to 0K:               -192.3800571088 H        -5234.9277 eV
Total Mermin free energy:         -192.3800571088 H        -5234.9277 eV
Force related energy:             -192.3800571088 H        -5234.9277 eV

Volume:                              0.997206E+04 au^3   0.147771E+04 A^3
Pressure:                            0.176521E-06 au     0.519341E+07 Pa
>> Charges saved for restart in charges.bin

total energy  -1.9238006E+02 H       energy change -7.6194593E-07 H
gradient norm  7.5207528E-04 H/a0    max. gradient  1.7680809E-04 H/a0
step length    1.7734088E-03 a0      max. step      3.2853071E-04 a0

--------------------------------------------------------------------------------

***  Geometry step: 208

 iSCC Total electronic   Diff electronic      SCC error    
    1   -0.19434603E+03    0.00000000E+00    0.18388635E-03
    2   -0.19434602E+03    0.14612518E-04    0.76392846E-04
    3   -0.19434602E+03   -0.31505834E-07    0.25806856E-04
    4   -0.19434602E+03   -0.69690032E-08    0.30037888E-05
    5   -0.19434602E+03   -0.10174972E-09    0.40622592E-06
    6   -0.19434602E+03   -0.75317530E-11    0.85654265E-07
    7   -0.19434602E+03    0.00000000E+00    0.17930639E-07
    8   -0.19434602E+03   -0.85265128E-13    0.63562422E-08

Total Energy:                     -192.3800585237 H        -5234.9277 eV
Extrapolated to 0K:               -192.3800585237 H        -5234.9277 eV
Total Mermin free energy:         -192.3800585237 H        -5234.9277 eV
Force related energy:             -192.3800585237 H        -5234.9277 eV

Volume:                              0.997181E+04 au^3   0.147767E+04 A^3
Pressure:                            0.180946E-06 au     0.532360E+07 Pa
>> Charges saved for restart in charges.bin

total energy  -1.9238006E+02 H       energy change -1.4148928E-06 H
gradient norm  9.1429883E-04 H/a0    max. gradient  2.2406391E-04 H/a0
step length    6.8706113E-03 a0      max. step      1.6105626E-03 a0

--------------------------------------------------------------------------------

***  Geometry step: 209

 iSCC Total electronic   Diff electronic      SCC error    
    1   -0.19434602E+03    0.00000000E+00    0.16565768E-03
    2   -0.19434590E+03    0.12346646E-03    0.75488902E-04
    3   -0.19434590E+03   -0.10464873E-07    0.16737926E-04
    4   -0.19434590E+03   -0.22274378E-08    0.18456343E-05
    5   -0.19434590E+03   -0.42462034E-10    0.36385497E-06
    6   -0.19434590E+03   -0.27000624E-11    0.87071544E-07
    7   -0.19434590E+03   -0.56843419E-13    0.95538173E-08

Total Energy:                     -192.3800598601 H        -5234.9278 eV
Extrapolated to 0K:               -192.3800598601 H        -5234.9278 eV
Total Mermin free energy:         -192.3800598601 H        -5234.9278 eV
Force related energy:             -192.3800598601 H        -5234.9278 eV

Volume:                              0.997162E+04 au^3   0.147764E+04 A^3
Pressure:                            0.121498E-06 au     0.357460E+07 Pa
>> Charges saved for restart in charges.bin

total energy  -1.9238006E+02 H       energy change -1.3364104E-06 H
gradient norm  9.9040487E-04 H/a0    max. gradient  2.1751290E-04 H/a0
step length    7.4429722E-03 a0      max. step      1.4995274E-03 a0

--------------------------------------------------------------------------------

***  Geometry step: 210

 iSCC Total electronic   Diff electronic      SCC error    
    1   -0.19434590E+03    0.00000000E+00    0.26998285E-03
    2   -0.19434556E+03    0.33854694E-03    0.12347050E-03
    3   -0.19434556E+03   -0.49531451E-07    0.32690935E-04
    4   -0.19434556E+03   -0.96865733E-08    0.44365876E-05
    5   -0.19434556E+03   -0.19485924E-09    0.56832158E-06
    6   -0.19434556E+03   -0.16001422E-10    0.12362412E-06
    7   -0.19434556E+03   -0.14210855E-12    0.20949753E-07
    8   -0.19434556E+03   -0.85265128E-13    0.55021592E-08

Total Energy:                     -192.3800622853 H        -5234.9278 eV
Extrapolated to 0K:               -192.3800622853 H        -5234.9278 eV
Total Mermin free energy:         -192.3800622853 H        -5234.9278 eV
Force related energy:             -192.3800622853 H        -5234.9278 eV

Volume:                              0.997097E+04 au^3   0.147755E+04 A^3
Pressure:                            0.287217E-07 au     0.845020E+06 Pa
>> Charges saved for restart in charges.bin

total energy  -1.9238006E+02 H       energy change -2.4251770E-06 H
gradient norm  1.0841874E-03 H/a0    max. gradient  2.1136400E-04 H/a0
step length    1.8274415E-02 a0      max. step      3.5720730E-03 a0

--------------------------------------------------------------------------------

***  Geometry step: 211

 iSCC Total electronic   Diff electronic      SCC error    
    1   -0.19434556E+03    0.00000000E+00    0.18740925E-03
    2   -0.19434535E+03    0.21255971E-03    0.77596146E-04
    3   -0.19434535E+03   -0.23296508E-07    0.26679706E-04
    4   -0.19434535E+03   -0.47705839E-08    0.36672450E-05
    5   -0.19434535E+03   -0.10848566E-09    0.58976108E-06
    6   -0.19434535E+03   -0.82991392E-11    0.10617906E-06
    7   -0.19434535E+03   -0.17053026E-12    0.17007525E-07
    8   -0.19434535E+03    0.00000000E+00    0.44834216E-08

Total Energy:                     -192.3800640905 H        -5234.9279 eV
Extrapolated to 0K:               -192.3800640905 H        -5234.9279 eV
Total Mermin free energy:         -192.3800640905 H        -5234.9279 eV
Force related energy:             -192.3800640905 H        -5234.9279 eV

Volume:                              0.997051E+04 au^3   0.147748E+04 A^3
Pressure:                           -0.465070E-07 au    -0.136828E+07 Pa
>> Charges saved for restart in charges.bin

total energy  -1.9238006E+02 H       energy change -1.8052242E-06 H
gradient norm  9.4717507E-04 H/a0    max. gradient  1.9964528E-04 H/a0
step length    1.3792376E-02 a0      max. step      2.6103609E-03 a0

--------------------------------------------------------------------------------

***  Geometry step: 212

 iSCC Total electronic   Diff electronic      SCC error    
    1   -0.19434535E+03    0.00000000E+00    0.25651129E-03
    2   -0.19434531E+03    0.40096402E-04    0.10075155E-03
    3   -0.19434531E+03   -0.35502609E-07    0.24410907E-04
    4   -0.19434531E+03   -0.70209865E-08    0.32761064E-05
    5   -0.19434531E+03   -0.15242563E-09    0.69075738E-06
    6   -0.19434531E+03   -0.99475983E-11    0.97762213E-07
    7   -0.19434531E+03   -0.28421709E-13    0.16805280E-07
    8   -0.19434531E+03    0.00000000E+00    0.55625238E-08

Total Energy:                     -192.3800657628 H        -5234.9279 eV
Extrapolated to 0K:               -192.3800657628 H        -5234.9279 eV
Total Mermin free energy:         -192.3800657628 H        -5234.9279 eV
Force related energy:             -192.3800657628 H        -5234.9279 eV

Volume:                              0.996949E+04 au^3   0.147733E+04 A^3
Pressure:                           -0.142850E-07 au    -0.420280E+06 Pa
>> Charges saved for restart in charges.bin

total energy  -1.9238007E+02 H       energy change -1.6722864E-06 H
gradient norm  7.6076404E-04 H/a0    max. gradient  1.2616081E-04 H/a0
step length    2.0538620E-02 a0      max. step      4.6354636E-03 a0

--------------------------------------------------------------------------------

***  Geometry step: 213

 iSCC Total electronic   Diff electronic      SCC error    
    1   -0.19434531E+03    0.00000000E+00    0.11104064E-03
    2   -0.19434534E+03   -0.35724684E-04    0.45148478E-04
    3   -0.19434534E+03   -0.14507492E-07    0.14298320E-04
    4   -0.19434534E+03   -0.28739748E-08    0.17632335E-05
    5   -0.19434534E+03   -0.26346925E-10    0.21165319E-06
    6   -0.19434534E+03   -0.21600499E-11    0.31236058E-07
    7   -0.19434534E+03   -0.28421709E-13    0.71681385E-08

Total Energy:                     -192.3800664995 H        -5234.9280 eV
Extrapolated to 0K:               -192.3800664995 H        -5234.9280 eV
Total Mermin free energy:         -192.3800664995 H        -5234.9280 eV
Force related energy:             -192.3800664995 H        -5234.9280 eV

Volume:                              0.996944E+04 au^3   0.147732E+04 A^3
Pressure:                           -0.256148E-08 au    -0.753614E+05 Pa
>> Charges saved for restart in charges.bin

total energy  -1.9238007E+02 H       energy change -7.3671163E-07 H
gradient norm  6.4439701E-04 H/a0    max. gradient  1.2076527E-04 H/a0
step length    2.7660696E-03 a0      max. step      5.9035376E-04 a0

--------------------------------------------------------------------------------

***  Geometry step: 214

 iSCC Total electronic   Diff electronic      SCC error    
    1   -0.19434534E+03    0.00000000E+00    0.14665334E-03
    2   -0.19434534E+03   -0.20031827E-05    0.60961471E-04
    3   -0.19434534E+03   -0.18110029E-07    0.17092119E-04
    4   -0.19434534E+03   -0.38551491E-08    0.22778953E-05
    5   -0.19434534E+03   -0.41580961E-10    0.38407771E-06
    6   -0.19434534E+03   -0.39506176E-11    0.97087016E-07
    7   -0.19434534E+03   -0.56843419E-13    0.10373844E-07
    8   -0.19434534E+03    0.28421709E-13    0.24233544E-08

Total Energy:                     -192.3800672414 H        -5234.9280 eV
Extrapolated to 0K:               -192.3800672414 H        -5234.9280 eV
Total Mermin free energy:         -192.3800672414 H        -5234.9280 eV
Force related energy:             -192.3800672414 H        -5234.9280 eV

Volume:                              0.996928E+04 au^3   0.147729E+04 A^3
Pressure:                            0.183886E-07 au     0.541011E+06 Pa
>> Charges saved for restart in charges.bin

total energy  -1.9238007E+02 H       energy change -7.4182796E-07 H
gradient norm  7.6493114E-04 H/a0    max. gradient  2.5986371E-04 H/a0
step length    3.8597438E-03 a0      max. step      7.8459550E-04 a0

--------------------------------------------------------------------------------

***  Geometry step: 215

 iSCC Total electronic   Diff electronic      SCC error    
    1   -0.19434534E+03    0.00000000E+00    0.11329761E-03
    2   -0.19434541E+03   -0.67528463E-04    0.48399935E-04
    3   -0.19434541E+03   -0.12215480E-07    0.17928940E-04
    4   -0.19434541E+03   -0.26413431E-08    0.22185230E-05
    5   -0.19434541E+03   -0.25977442E-10    0.27694975E-06
    6   -0.19434541E+03   -0.24442670E-11    0.61855998E-07
    7   -0.19434541E+03    0.00000000E+00    0.10433752E-07
    8   -0.19434541E+03    0.28421709E-13    0.19039779E-08

Total Energy:                     -192.3800680088 H        -5234.9280 eV
Extrapolated to 0K:               -192.3800680088 H        -5234.9280 eV
Total Mermin free energy:         -192.3800680088 H        -5234.9280 eV
Force related energy:             -192.3800680088 H        -5234.9280 eV

Volume:                              0.996914E+04 au^3   0.147727E+04 A^3
Pressure:                            0.440106E-07 au     0.129484E+07 Pa
>> Charges saved for restart in charges.bin

total energy  -1.9238007E+02 H       energy change -7.6740753E-07 H
gradient norm  7.9721714E-04 H/a0    max. gradient  1.6562353E-04 H/a0
step length    3.3206157E-03 a0      max. step      7.3448679E-04 a0

--------------------------------------------------------------------------------

***  Geometry step: 216

 iSCC Total electronic   Diff electronic      SCC error    
    1   -0.19434541E+03    0.00000000E+00    0.18977660E-03
    2   -0.19434546E+03   -0.50260386E-04    0.81443456E-04
    3   -0.19434546E+03   -0.22989241E-07    0.28845714E-04
    4   -0.19434546E+03   -0.47276387E-08    0.31653384E-05
    5   -0.19434546E+03   -0.82820861E-10    0.50488061E-06
    6   -0.19434546E+03   -0.65369932E-11    0.10200750E-06
    7   -0.19434546E+03   -0.14210855E-12    0.16757057E-07
    8   -0.19434546E+03    0.56843419E-13    0.38779087E-08

Total Energy:                     -192.3800692104 H        -5234.9280 eV
Extrapolated to 0K:               -192.3800692104 H        -5234.9280 eV
Total Mermin free energy:         -192.3800692104 H        -5234.9280 eV
Force related energy:             -192.3800692104 H        -5234.9280 eV

Volume:                              0.996885E+04 au^3   0.147723E+04 A^3
Pressure:                            0.513430E-07 au     0.151056E+07 Pa
>> Charges saved for restart in charges.bin

total energy  -1.9238007E+02 H       energy change -1.2016434E-06 H
gradient norm  7.9211761E-04 H/a0    max. gradient  2.0254726E-04 H/a0
step length    6.2718857E-03 a0      max. step      1.3589477E-03 a0

--------------------------------------------------------------------------------

***  Geometry step: 217

 iSCC Total electronic   Diff electronic      SCC error    
    1   -0.19434546E+03    0.00000000E+00    0.17854566E-03
    2   -0.19434553E+03   -0.71569528E-04    0.80344179E-04
    3   -0.19434553E+03   -0.20704135E-07    0.25814803E-04
    4   -0.19434553E+03   -0.41266048E-08    0.23993632E-05
    5   -0.19434553E+03   -0.82081897E-10    0.47688160E-06
    6   -0.19434553E+03   -0.51443294E-11    0.96049395E-07
    7   -0.19434553E+03   -0.17053026E-12    0.15704571E-07
    8   -0.19434553E+03   -0.56843419E-13    0.38807584E-08

Total Energy:                     -192.3800703954 H        -5234.9281 eV
Extrapolated to 0K:               -192.3800703954 H        -5234.9281 eV
Total Mermin free energy:         -192.3800703954 H        -5234.9281 eV
Force related energy:             -192.3800703954 H        -5234.9281 eV

Volume:                              0.996860E+04 au^3   0.147719E+04 A^3
Pressure:                            0.125409E-06 au     0.368967E+07 Pa
>> Charges saved for restart in charges.bin

total energy  -1.9238007E+02 H       energy change -1.1850359E-06 H
gradient norm  8.1577325E-04 H/a0    max. gradient  2.2072367E-04 H/a0
step length    9.4593729E-03 a0      max. step      1.9648593E-03 a0

--------------------------------------------------------------------------------

***  Geometry step: 218

 iSCC Total electronic   Diff electronic      SCC error    
    1   -0.19434553E+03    0.00000000E+00    0.17083426E-03
    2   -0.19434543E+03    0.10466074E-03    0.74621331E-04
    3   -0.19434543E+03   -0.17489441E-07    0.13362108E-04
    4   -0.19434543E+03   -0.32976288E-08    0.26641053E-05
    5   -0.19434543E+03   -0.42234660E-10    0.32692591E-06
    6   -0.19434543E+03   -0.34390268E-11    0.87077021E-07
    7   -0.19434543E+03   -0.11368684E-12    0.11989878E-07
    8   -0.19434543E+03   -0.56843419E-13    0.23279805E-08

Total Energy:                     -192.3800713500 H        -5234.9281 eV
Extrapolated to 0K:               -192.3800713500 H        -5234.9281 eV
Total Mermin free energy:         -192.3800713500 H        -5234.9281 eV
Force related energy:             -192.3800713500 H        -5234.9281 eV

Volume:                              0.996841E+04 au^3   0.147717E+04 A^3
Pressure:                            0.590497E-07 au     0.173730E+07 Pa
>> Charges saved for restart in charges.bin

total energy  -1.9238007E+02 H       energy change -9.5455476E-07 H
gradient norm  6.3872562E-04 H/a0    max. gradient  1.2658742E-04 H/a0
step length    1.0375446E-02 a0      max. step      2.1332315E-03 a0

--------------------------------------------------------------------------------

***  Geometry step: 219

 iSCC Total electronic   Diff electronic      SCC error    
    1   -0.19434543E+03    0.00000000E+00    0.15510362E-03
    2   -0.19434533E+03    0.98832175E-04    0.62444817E-04
    3   -0.19434533E+03   -0.19363796E-07    0.17121862E-04
    4   -0.19434533E+03   -0.35622065E-08    0.42219169E-05
    5   -0.19434533E+03   -0.60339289E-10    0.41958333E-06
    6   -0.19434533E+03   -0.37516656E-11    0.62395387E-07
    7   -0.19434533E+03   -0.11368684E-12    0.13352111E-07
    8   -0.19434533E+03    0.00000000E+00    0.25477833E-08

Total Energy:                     -192.3800720146 H        -5234.9281 eV
Extrapolated to 0K:               -192.3800720146 H        -5234.9281 eV
Total Mermin free energy:         -192.3800720146 H        -5234.9281 eV
Force related energy:             -192.3800720146 H        -5234.9281 eV

Volume:                              0.996819E+04 au^3   0.147713E+04 A^3
Pressure:                            0.262449E-07 au     0.772150E+06 Pa
>> Charges saved for restart in charges.bin

total energy  -1.9238007E+02 H       energy change -6.6457065E-07 H
gradient norm  5.4817344E-04 H/a0    max. gradient  9.8534889E-05 H/a0
step length    1.1990058E-02 a0      max. step      2.4946025E-03 a0

Geometry converged

--------------------------------------------------------------------------------
DFTB+ running times                          cpu [s]             wall clock [s]
--------------------------------------------------------------------------------
Pre-SCC initialisation                 +       7.81 (  0.3%)       3.50 (  0.9%)
SCC                                    +    2762.73 ( 91.7%)     359.25 ( 89.4%)
Post-SCC processing                    +     241.44 (  8.0%)      38.97 (  9.7%)
--------------------------------------------------------------------------------
Missing                                +       0.21 (  0.0%)       0.01 (  0.0%)
Total                                  =    3012.19 (100.0%)     401.73 (100.0%)
--------------------------------------------------------------------------------
