   72
Geometry Step: 0
   Ge      2.56407553      5.97964120      5.91760459      3.17513118
   Ge      7.78907553      1.53435880      5.91760459      3.17513118
   Si      1.51640887      3.67434600      7.70763040      3.10084032
   Si      6.51966213      3.67434600      0.91484460      3.09747150
   Si      6.51966213     11.35365400      0.91484460      3.09805908
   Si      1.51640887     11.35365400      7.70763040      3.09790195
   Si      6.74140887     11.18834600      7.70763040      3.09790195
   Si      1.29466213     11.18834600      0.91484460      3.09805908
   Si      1.29466213      3.83965400      0.91484460      3.09747150
   Si      6.74140887      3.83965400      7.70763040      3.10084032
   Si      2.40431475      5.97964120      2.86007496      3.12210716
   Si      5.63175625      5.97964120      5.76240004      3.12218384
   Si      5.63175625      9.04835880      5.76240004      3.11753256
   Si      2.40431475      9.04835880      2.86007496      3.11759078
   Si      7.62931475     13.49364120      2.86007496      3.11759078
   Si      0.40675625     13.49364120      5.76240004      3.11753256
   Si      0.40675625      1.53435880      5.76240004      3.12218384
   Si      7.62931475      1.53435880      2.86007496      3.12210716
   Si      5.47199547      5.97964120      2.70487041      3.11972894
   Si      5.47199547      9.04835880      2.70487041      3.11996261
   Si      2.56407553      9.04835880      5.91760459      3.12384335
   Si      7.78907553     13.49364120      5.91760459      3.12384335
   Si      0.24699547     13.49364120      2.70487041      3.11996261
   Si      0.24699547      1.53435880      2.70487041      3.11972894
    O      5.22500000      3.40534480      0.00000000      6.43911492
    O      5.22500000     11.62265520      0.00000000      6.43959346
    O      0.00000000     10.91934480      0.00000000      6.43959346
    O      0.00000000      4.10865520      0.00000000      6.43911492
    O      1.37088378      2.46609480      6.65223946      6.42759339
    O      6.66518722      2.46609480      1.97023554      6.42800705
    O      6.66518722     12.56190520      1.97023554      6.42847049
    O      1.37088378     12.56190520      6.65223946      6.42845082
    O      6.59588378      9.98009480      6.65223946      6.42845082
    O      1.44018722      9.98009480      1.97023554      6.42847049
    O      1.44018722      5.04790520      1.97023554      6.42800705
    O      6.59588378      5.04790520      6.65223946      6.42759339
    O      1.68921648      5.05992760      6.90746472      6.41211935
    O      6.34685452      5.05992760      1.71501028      6.43155379
    O      6.34685452      9.96807240      1.71501028      6.43158841
    O      1.68921648      9.96807240      6.90746472      6.43128054
    O      6.91421648     12.57392760      6.90746472      6.43128054
    O      1.12185452     12.57392760      1.71501028      6.43158841
    O      1.12185452      2.45407240      1.71501028      6.43155379
    O      6.91421648      2.45407240      6.90746472      6.41211935
    O      2.61250000      3.75700000      0.00000000      6.44030464
    O      7.83750000      3.75700000      0.00000000      6.44030464
    O      7.83750000     11.27100000      0.00000000      6.44072720
    O      2.61250000     11.27100000      0.00000000      6.44072720
    O      3.91513367      5.85340600      2.31599678      6.46397094
    O      4.12093733      5.85340600      6.30647822      6.45019564
    O      4.12093733      9.17459400      6.30647822      6.46368054
    O      3.91513367      9.17459400      2.31599678      6.46417839
    O      9.14013367     13.36740600      2.31599678      6.46417839
    O     -1.10406267     13.36740600      6.30647822      6.46368054
    O     -1.10406267      1.66059400      6.30647822      6.45019564
    O      9.14013367      1.66059400      2.31599678      6.46397094
    O      2.34641400      5.50175080      4.39573775      6.43833155
    O      5.68965700      5.50175080      4.22673724      6.45189822
    O      5.68965700      9.52624920      4.22673724      6.45246525
    O      2.34641400      9.52624920      4.39573775      6.45214388
    O      7.57141400     13.01575080      4.39573775      6.45214388
    O      0.46465700     13.01575080      4.22673724      6.45246525
    O      0.46465700      2.01224920      4.22673724      6.45189822
    O      7.57141400      2.01224920      4.39573775      6.43833155
    O      1.92565329      7.51400000      2.75574301      6.44664221
    O      6.11041771      7.51400000      5.86673199      6.44675913
    O      7.15065329      0.00000000      2.75574301      6.44664221
    O      0.88541771      0.00000000      5.86673199      6.44675913
    O      2.09724095      7.51400000      6.06591116      6.43182747
    O      5.93883005      7.51400000      2.55656384      6.44674945
    O      7.32224095      0.00000000      6.06591116      6.43182747
    O      0.71383005      0.00000000      2.55656384      6.44674945
   72
Geometry Step: 1
   Ge      2.56146932      5.97822737      5.91968974      3.20055694
   Ge      7.78646932      1.53577263      5.91968974      3.22350843
   Si      1.51562942      3.67337935      7.71009785      3.09973044
   Si      6.52000659      3.67384482      0.91295377      3.09776612
   Si      6.52003983     11.35418557      0.91278085      3.09174874
   Si      1.51602272     11.35421900      7.70972225      3.09544977
   Si      6.74102272     11.18778100      7.70972225      3.09226517
   Si      1.29503983     11.18781443      0.91278085      3.09534402
   Si      1.29500659      3.84015518      0.91295377      3.10058325
   Si      6.74062942      3.84062065      7.71009785      3.09676485
   Si      2.40195955      5.97778115      2.85822637      3.12428457
   Si      5.63364691      5.97821758      5.76497418      3.11593688
   Si      5.63405784      9.04981567      5.76457390      3.11574239
   Si      2.40201139      9.04978863      2.85787202      3.12367908
   Si      7.62701139     13.49221137      2.85787202      3.12164449
   Si      0.40905784     13.49218433      5.76457390      3.11806283
   Si      0.40864691      1.53578242      5.76497418      3.12001514
   Si      7.62695955      1.53621885      2.85822637      3.12577667
   Si      5.47418347      5.97823099      2.70269058      3.12461021
   Si      5.47420145      9.04985016      2.70263786      3.12233224
   Si      2.56143251      9.04976842      5.91997289      3.12265775
   Si      7.78643251     13.49223158      5.91997289      3.12170605
   Si      0.24920145     13.49214984      2.70263786      3.13093243
   Si      0.24918347      1.53576901      2.70269058      3.13639060
    O      5.22479909      3.39901889     -0.00017072      6.44837122
    O      5.22499454     11.62906996     -0.00000556      6.44572278
    O     -0.00000546     10.91293004     -0.00000556      6.47068856
    O     -0.00020091      4.11498111     -0.00017072      6.47332624
    O      1.37862624      2.46148480      6.64955167      6.42814237
    O      6.65738232      2.46129069      1.97314442      6.42693894
    O      6.65734977     12.56673339      1.97307131      6.42335471
    O      1.37872410     12.56672674      6.64940669      6.42072454
    O      6.60372410      9.97527326      6.64940669      6.41768097
    O      1.43234977      9.97526661      1.97307131      6.42569094
    O      1.43238232      5.05270931      1.97314442      6.42707131
    O      6.60362624      5.05251520      6.64955167      6.42291046
    O      1.64400299      5.02596757      6.95190553      6.39356893
    O      6.35349318      5.06718069      1.71458608      6.43016068
    O      6.35346371      9.96074827      1.71465966      6.43046771
    O      1.68263336      9.96057963      6.90774396      6.42752574
    O      6.90763336     12.58142037      6.90774396      6.40985361
    O      1.12846371     12.58125173      1.71465966      6.41819822
    O      1.12849318      2.44681931      1.71458608      6.42020662
    O      6.86900299      2.48803243      6.95190553      6.37648160
    O      2.61270280      3.75711667     -0.00021739      6.44558100
    O      7.83770280      3.75688333     -0.00021739      6.43881991
    O      7.83750609     11.27100289     -0.00000495      6.43718341
    O      2.61250609     11.27099711     -0.00000495      6.44384819
    O      3.91458715      5.84969355      2.30519371      6.46530133
    O      4.19237699      5.84406533      6.33422123      6.43568547
    O      4.12121077      9.17820652      6.31732758      6.46819287
    O      3.91471275      9.17826281      2.30513169      6.46333732
    O      9.13971275     13.36373719      2.30513169      6.48194797
    O     -1.10378923     13.36379348      6.31732758      6.48370402
    O     -1.03262301      1.66993467      6.33422123      6.45070521
    O      9.13958715      1.66430645      2.30519371      6.49197792
    O      2.33197296      5.46973954      4.32674534      6.42141237
    O      5.69412028      5.49054476      4.22673804      6.45452704
    O      5.69415149      9.53745618      4.22661496      6.45298233
    O      2.34190202      9.53737006      4.39602974      6.45578919
    O      7.56690202     13.00462994      4.39602974      6.44037773
    O      0.46915149     13.00454382      4.22661496      6.43808034
    O      0.46912028      2.02345524      4.22673804      6.44712174
    O      7.55697296      2.04426046      4.32674534      6.40944194
    O      1.91398122      7.51386449      2.75219506      6.44859213
    O      6.12205203      7.51383521      5.87035367      6.44762386
    O      7.13898122      0.00013551      2.75219506      6.46058802
    O      0.89705203      0.00016479      5.87035367      6.45991485
    O      2.06565728      7.58276581      6.07758446      6.41470343
    O      5.95007186      7.51397125      2.55160152      6.44698857
    O      7.29065728     -0.06876581      6.07758446      6.40393282
    O      0.72507186      0.00002875      2.55160152      6.43706385
   72
Geometry Step: 2
   Ge      2.56078324      5.97806582      5.91884056      3.22686312
   Ge      7.83332713      1.53871236      5.92773643      3.24386160
   Si      1.51165446      3.64703632      7.73748156      3.09427049
   Si      6.51869631      3.67172376      0.91298620      3.09512603
   Si      6.51823644     11.35490439      0.91244205      3.09104710
   Si      1.51488595     11.35570603      7.72398040      3.09386155
   Si      6.75733883     11.18228329      7.73670647      3.09324197
   Si      1.29191593     11.18551184      0.90759687      3.09232782
   Si      1.29174583      3.84158722      0.90780939      3.09701501
   Si      6.75459979      3.86869815      7.75010434      3.09428911
   Si      2.39997048      5.98362392      2.83062678      3.12337931
   Si      5.65847182      5.97980806      5.75664930      3.11910351
   Si      5.63473384      9.04912499      5.76488549      3.11980262
   Si      2.39913499      9.05087445      2.85505047      3.12218138
   Si      7.62516595     13.50892469      2.85164685      3.12134339
   Si      0.41135226     13.50918919      5.76905389      3.11977179
   Si      0.43036067      1.53205123      5.75888725      3.11738705
   Si      7.63155046      1.52694251      2.82914662      3.12293347
   Si      5.47602527      5.97647150      2.69956571      3.12508525
   Si      5.47594578      9.05044263      2.69992512      3.12450334
   Si      2.56647026      9.07413630      5.91833456      3.12636059
   Si      7.81396574     13.49058982      5.92606749      3.12826832
   Si      0.22788010     13.50386602      2.69260716      3.12992300
   Si      0.22277598      1.53971900      2.69451826      3.13021085
    O      5.21614990      3.39216522     -0.00740209      6.43698403
    O      5.21625036     11.63603442     -0.00723394      6.43655441
    O     -0.02869970     10.90906039     -0.02041780      6.45427888
    O     -0.02879202      4.11888899     -0.02060013      6.45630245
    O      1.39254703      2.45872224      6.64904261      6.42357815
    O      6.64457214      2.45766243      1.97429535      6.42172137
    O      6.64525296     12.57210449      1.97598664      6.42100518
    O      1.39135215     12.57112039      6.64792922      6.42151410
    O      6.61739856      9.97312016      6.65034640      6.42313197
    O      1.42124385      9.96996258      1.97655290      6.42323223
    O      1.42139312      5.05856132      1.97625263      6.42319860
    O      6.61771384      5.05541012      6.65002704      6.42559572
    O      1.61079828      5.02994763      6.97072595      6.39926988
    O      6.36340552      5.07616515      1.71297924      6.42737639
    O      6.36374120      9.95271224      1.71260354      6.42741422
    O      1.67234327      9.95471640      6.91139128      6.42641912
    O      6.89937750     12.58874633      6.91132084      6.42107162
    O      1.13617650     12.59335670      1.71537078      6.42214725
    O      1.13653081      2.43606485      1.71463348      6.42231174
    O      6.83671387      2.48544628      6.97226247      6.39235331
    O      2.62290824      3.75623668     -0.00711528      6.44900467
    O      7.85067553      3.75839064     -0.00865207      6.44787329
    O      7.85121523     11.26995194     -0.00894451      6.44802678
    O      2.62325976     11.27184978     -0.00744375      6.44862815
    O      3.91489532      5.84531337      2.29067392      6.46406155
    O      4.21248765      5.83338209      6.36901789      6.43591223
    O      4.12281409      9.18320671      6.33197009      6.46463754
    O      3.91463984      9.18310351      2.29079816      6.46414073
    O      9.16998651     13.36157647      2.29843409      6.47313754
    O     -1.13513721     13.36146949      6.32426546      6.47517162
    O     -1.06130632      1.67726415      6.35741406      6.44026869
    O      9.17043656      1.66693339      2.29804809      6.47829451
    O      2.31876919      5.43349979      4.31023941      6.42250093
    O      5.70011783      5.47574540      4.22777497      6.45056473
    O      5.70021698      9.55263808      4.22770635      6.45213834
    O      2.33642574      9.55265740      4.39672338      6.45304193
    O      7.56170708     12.99009637      4.40178928      6.44367350
    O      0.47430834     12.99038752      4.22261884      6.44193723
    O      0.47395231      2.03877151      4.22281003      6.44542750
    O      7.54383532      2.08147145      4.31475067      6.41632516
    O      1.89863004      7.51444030      2.74783136      6.44553200
    O      6.13808271      7.51484883      5.87504515      6.44649852
    O      7.12689437     -0.01755386      2.74944510      6.45395605
    O      0.90932686     -0.01779804      5.87327485      6.45438194
    O      2.02974221      7.60167846      6.09127137      6.41541415
    O      5.96517202      7.51451538      2.54532541      6.44587243
    O      7.26483494     -0.11441179      6.08928727      6.41622645
    O      0.73292245     -0.01765386      2.54615863      6.44973358
   72
Geometry Step: 3
   Ge      2.56202441      5.97981632      5.91783881      3.25306752
   Ge      7.85622030      1.52572927      5.93953071      3.26858305
   Si      1.48578558      3.62132589      7.76853874      3.09201058
   Si      6.52435835      3.67356795      0.90591227      3.09313774
   Si      6.52413275     11.35424625      0.90619981      3.09434219
   Si      1.49226067     11.35345898      7.73680907      3.09534041
   Si      6.76944315     11.17917248      7.77252071      3.09722599
   Si      1.28302225     11.18481444      0.89577000      3.09250872
   Si      1.28284240      3.84250844      0.89560261      3.09331049
   Si      6.76456119      3.90100506      7.80281187      3.09483722
   Si      2.40225137      5.99539119      2.80155537      3.12679450
   Si      5.69265039      5.98122065      5.74737051      3.12320509
   Si      5.63737009      9.05003139      5.76727315      3.12297295
   Si      2.39895339      9.05124370      2.85526326      3.12196485
   Si      7.63078717     13.53768221      2.84827066      3.12708752
   Si      0.40499892     13.53684106      5.77423789      3.12534453
   Si      0.44023084      1.52181627      5.75673849      3.12110780
   Si      7.64446347      1.50858579      2.79781990      3.12792494
   Si      5.47782612      5.97687268      2.70012066      3.12515710
   Si      5.47750622      9.05014831      2.70109062      3.12849416
   Si      2.57593488      9.10527930      5.91547427      3.13090068
   Si      7.84818344     13.49163361      5.93675804      3.13946429
   Si      0.20018678     13.53248955      2.68196240      3.13415912
   Si      0.18817537      1.53066399      2.68467878      3.12858538
    O      5.22229094      3.37694443     -0.00336986      6.44276342
    O      5.21774259     11.65025936     -0.00670019      6.44614360
    O     -0.05722983     10.90349422     -0.04080978      6.45032572
    O     -0.05419967      4.12569635     -0.03849258      6.44928296
    O      1.41600493      2.45167632      6.64746595      6.41747343
    O      6.62081076      2.45224003      1.97308927      6.41686630
    O      6.62574997     12.58196200      1.98030380      6.42095351
    O      1.41014498     12.57777804      6.64717944      6.42334499
    O      6.64007033      9.97317340      6.65572089      6.42693121
    O      1.39807977      9.96697326      1.97613061      6.42121788
    O      1.39319205      5.05707798      1.96882419      6.41921121
    O      6.64514840      5.05663316      6.65497015      6.42207393
    O      1.57203726      5.04890819      6.98559894      6.40616043
    O      6.38286281      5.08463173      1.70480030      6.42670967
    O      6.38317686      9.94398391      1.70495968      6.42547926
    O      1.64978950      9.95563645      6.92570109      6.42083147
    O      6.88542465     12.59372070      6.92078871      6.42767455
    O      1.14997181     12.60668860      1.71142231      6.42719790
    O      1.15141494      2.42558039      1.70920977      6.42582483
    O      6.80833128      2.46069490      6.97974979      6.40502514
    O      2.63704795      3.75394421     -0.01824013      6.43797137
    O      7.86823212      3.76159591     -0.01998483      6.44190125
    O      7.87307087     11.26836140     -0.02396215      6.44552997
    O      2.64209494     11.27309600     -0.02260073      6.44098782
    O      3.91906863      5.83832641      2.26485758      6.45841001
    O      4.20995314      5.81898020      6.41760999      6.43958214
    O      4.12844813      9.19132532      6.35668828      6.45658094
    O      3.91258564      9.19065327      2.26776738      6.46267136
    O      9.20110704     13.36022435      2.29075758      6.46504306
    O     -1.16276636     13.35926964      6.33203368      6.46319611
    O     -1.07748721      1.68637340      6.38586800      6.43684657
    O      9.20803031      1.67044550      2.28685394      6.46044532
    O      2.30222397      5.38521636      4.31164026      6.42502921
    O      5.70911242      5.45096601      4.22063254      6.44221001
    O      5.70911801      9.57673804      4.22549895      6.44892515
    O      2.32751248      9.57901608      4.38947548      6.44570789
    O      7.55441934     12.97012360      4.39941207      6.44370024
    O      0.48163232     12.97253853      4.21978341      6.44632571
    O      0.48074778      2.06241350      4.21511006      6.44171886
    O      7.52846615      2.12603162      4.32114290      6.42151109
    O      1.87239210      7.51970083      2.74075430      6.43858602
    O      6.16616086      7.52063704      5.88209761      6.44183127
    O      7.11288127     -0.04953211      2.74481789      6.43958695
    O      0.92452175     -0.04896055      5.87760746      6.44417562
    O      1.98092356      7.59761502      6.10997842      6.41873720
    O      5.98930934      7.51400441      2.53564190      6.44414257
    O      7.24182550     -0.13220636      6.10120131      6.41837669
    O      0.73864984     -0.04424723      2.54013416      6.45125138
   72
Geometry Step: 4
   Ge      2.55970104      5.97752761      5.91839448      3.27324369
   Ge      7.85921353      1.51336771      5.94538740      3.28852080
   Si      1.48785750      3.60568625      7.79554298      3.09163531
   Si      6.53272246      3.67615322      0.89695588      3.09061321
   Si      6.53267194     11.35594402      0.89712589      3.09430889
   Si      1.49407282     11.36095718      7.75684937      3.09614969
   Si      6.78536856     11.17888447      7.79797940      3.09572962
   Si      1.27174271     11.18730901      0.87852796      3.09367416
   Si      1.27151131      3.84004787      0.87744409      3.09190099
   Si      6.77907223      3.91345685      7.83666274      3.09323974
   Si      2.40007091      5.99683677      2.78655753      3.13286973
   Si      5.70950577      5.97920987      5.74674738      3.12737244
   Si      5.64538263      9.05690003      5.77084708      3.12525380
   Si      2.39841833      9.05433351      2.85192479      3.12536286
   Si      7.63777804     13.55718666      2.84474883      3.13230963
   Si      0.39885362     13.55517524      5.77740786      3.13016975
   Si      0.44510435      1.50875720      5.75380456      3.12692563
   Si      7.65530349      1.49490098      2.78210175      3.13466951
   Si      5.48172013      5.97755425      2.69736622      3.12790076
   Si      5.47983409      9.05061209      2.70039524      3.13277017
   Si      2.57550958      9.11962452      5.91666797      3.13857637
   Si      7.85888481     13.49725891      5.94457442      3.14738636
   Si      0.18753719     13.55469401      2.67569274      3.14196886
   Si      0.17793980      1.51722776      2.67691480      3.13328856
    O      5.21132510      3.36271190     -0.01347325      6.43300339
    O      5.20344538     11.66172450     -0.02001393      6.43807253
    O     -0.07680488     10.89832653     -0.05616984      6.44186374
    O     -0.07058791      4.13268928     -0.05112452      6.43911078
    O      1.44128374      2.44299719      6.64628810      6.41515238
    O      6.59937067      2.44340814      1.97255693      6.41513790
    O      6.61072865     12.59553090      1.98680424      6.42137930
    O      1.42507478     12.58797811      6.64491288      6.42459289
    O      6.66220123      9.97361330      6.66253043      6.42483864
    O      1.37372982      9.96435068      1.97422445      6.42092779
    O      1.36511204      5.05897359      1.96202661      6.41789241
    O      6.67657303      5.05655233      6.66228524      6.41772553
    O      1.54054824      5.06684967      6.99740567      6.40656816
    O      6.40400625      5.09438413      1.69645017      6.42415388
    O      6.40412806      9.93381681      1.69714219      6.42271587
    O      1.62736582      9.95360569      6.93867967      6.41796213
    O      6.87515995     12.59811101      6.92991197      6.42539873
    O      1.16075117     12.62171289      1.70851080      6.42730433
    O      1.16322497      2.41232107      1.70528917      6.42457813
    O      6.78872358      2.44306040      6.98787878      6.40474918
    O      2.63316590      3.75209502     -0.01714537      6.44576737
    O      7.87734781      3.76481620     -0.02438265      6.44826528
    O      7.88626476     11.26712171     -0.03258117      6.45331249
    O      2.64421802     11.27326863     -0.02704130      6.45036085
    O      3.92426916      5.83139661      2.23670813      6.45467052
    O      4.21162074      5.80708629      6.45808552      6.43864609
    O      4.13508826      9.19951689      6.38307618      6.45424008
    O      3.91112206      9.19770668      2.24427414      6.45969779
    O      9.21565792     13.36006926      2.28280055      6.46683798
    O     -1.17102115     13.35746833      6.34161070      6.46362038
    O     -1.08702755      1.69458387      6.41288915      6.43969124
    O      9.22471770      1.67383322      2.27224664      6.45838626
    O      2.28861522      5.34505835      4.31305472      6.42154315
    O      5.71804071      5.42448104      4.21468927      6.43761384
    O      5.71736063      9.60082959      4.22580614      6.44603329
    O      2.31878214      9.60765260      4.38335804      6.44117710
    O      7.54923920     12.95423883      4.39700002      6.44090839
    O      0.48698104     12.96003753      4.21770274      6.44519930
    O      0.48655888      2.08312775      4.20825362      6.43585074
    O      7.51839915      2.15793578      4.32959466      6.41710206
    O      1.84416690      7.52569996      2.73370536      6.43445506
    O      6.19611643      7.52714710      5.88860693      6.43909958
    O      7.10229209     -0.07584375      2.73974298      6.43207044
    O      0.93784485     -0.07424799      5.88158131      6.43787640
    O      1.94031089      7.59790509      6.12530291      6.41486373
    O      6.01359027      7.51376110      2.52650106      6.44087635
    O      7.22856408     -0.14391997      6.11004560      6.41019584
    O      0.74083977     -0.06321547      2.53506863      6.44267019
   72
Geometry Step: 5
   Ge      2.55484906      5.97467439      5.92020119      3.28813172
   Ge      7.86704401      1.50500652      5.95069820      3.30182853
   Si      1.47321987      3.60567599      7.81784032      3.09288562
   Si      6.54033259      3.67685157      0.88532891      3.09025565
   Si      6.54177360     11.36316537      0.88615601      3.09327513
   Si      1.48190582     11.37359971      7.78100847      3.09604703
   Si      6.78675184     11.18132912      7.82231683      3.09396523
   Si      1.26163167     11.19383554      0.86067264      3.09412587
   Si      1.25985054      3.83315349      0.85907684      3.09176161
   Si      6.77658196      3.90750724      7.86349668      3.09344525
   Si      2.39332792      5.99013480      2.78205423      3.13985989
   Si      5.71393097      5.97484692      5.75317399      3.13395099
   Si      5.65686315      9.06810913      5.77582026      3.13009354
   Si      2.39414526      9.06218637      2.84364618      3.13118816
   Si      7.64683520     13.56508990      2.84157978      3.13669234
   Si      0.39315071     13.55988688      5.77876808      3.13482120
   Si      0.44489164      1.49559566      5.75316655      3.13559075
   Si      7.66146965      1.48545068      2.77885844      3.14269169
   Si      5.48866173      5.97703542      2.69084522      3.13248401
   Si      5.48375729      9.05361694      2.69695143      3.13645370
   Si      2.56688410      9.12241018      5.92156709      3.14581703
   Si      7.86414123     13.50313395      5.95173643      3.15213533
   Si      0.17729093     13.56501864      2.67044661      3.14520314
   Si      0.17511153      1.50471758      2.66922889      3.13812293
    O      5.20913986      3.34657468     -0.01777592      6.43776279
    O      5.19708540     11.67386006     -0.02873146      6.44142137
    O     -0.08910734     10.89240594     -0.06683187      6.44636779
    O     -0.08034462      4.14094379     -0.05908078      6.44405555
    O      1.46655060      2.43197805      6.64534817      6.41608419
    O      6.58020883      2.43025093      1.97272234      6.41342534
    O      6.59762429     12.60902297      1.99136487      6.41841996
    O      1.43639301     12.59925995      6.64401534      6.42309249
    O      6.68588206      9.97670687      6.67360042      6.42263285
    O      1.34798405      9.96214113      1.97072120      6.41846975
    O      1.33620362      5.06404879      1.95545327      6.41632303
    O      6.71147840      5.05605794      6.67198123      6.41828168
    O      1.51007776      5.07684785      7.01367661      6.40300050
    O      6.42652856      5.10596214      1.68767182      6.42170321
    O      6.42600790      9.92257350      1.68873887      6.42141740
    O      1.60474009      9.95009244      6.95118110      6.41845482
    O      6.86875339     12.60307008      6.93943476      6.42430399
    O      1.16718308     12.63784523      1.70542581      6.42633541
    O      1.17139412      2.39774965      1.70095664      6.42334363
    O      6.77226904      2.43508143      7.00284078      6.40358922
    O      2.63896792      3.74841370     -0.02559556      6.43685002
    O      7.89906490      3.76963143     -0.03753126      6.43841564
    O      7.90779224     11.26550527     -0.04785973      6.44417624
    O      2.65111957     11.27369643     -0.03842629      6.44195981
    O      3.92655513      5.82482618      2.20661178      6.45399200
    O      4.21956581      5.79725281      6.49226454      6.43393234
    O      4.13948781      9.20775000      6.41055373      6.45559283
    O      3.91162038      9.20434299      2.21954732      6.45745244
    O      9.22970869     13.36247446      2.27634482      6.46587963
    O     -1.18200532     13.35722689      6.35005502      6.46423536
    O     -1.10383698      1.69992470      6.43402395      6.43876876
    O      9.23920504      1.67582994      2.25741208      6.46027474
    O      2.27764572      5.31118616      4.31004043      6.41387889
    O      5.72708271      5.39681746      4.21352458      6.43554211
    O      5.72504434      9.62572811      4.22724161      6.44378279
    O      2.31108579      9.63833097      4.38169447      6.43973551
    O      7.54681894     12.94273328      4.39810400      6.43726836
    O      0.48995523     12.95296166      4.21515595      6.44075834
    O      0.49066424      2.09995146      4.20128977      6.43198332
    O      7.51255691      2.17997468      4.33387759      6.41079200
    O      1.81495838      7.52799970      2.72699040      6.43231558
    O      6.22763129      7.53061292      5.89417249      6.43757088